<?xml version="1.0" encoding="UTF-8"?>

<!-- generated on 2026-01-20 22:47:57 by Eclipse SUMO sumo Version 1.24.0
<sumoConfiguration xmlns:xsi="http://www.w3.org/2001/XMLSchema-instance" xsi:noNamespaceSchemaLocation="http://sumo.dlr.de/xsd/sumoConfiguration.xsd">

    <input>
        <net-file value="SumoConfig/gutesim/osm.net.xml.gz"/>
        <route-files value="SumoConfig/gutesim/osm.passenger.trips.xml"/>
        <additional-files value="SumoConfig/gutesim/osm.poly.xml.gz,SumoConfig/gutesim/output.add.xml"/>
    </input>

    <output>
        <tripinfo-output value="SumoConfig/gutesim/tripinfos.xml"/>
        <statistic-output value="SumoConfig/gutesim/stats.xml"/>
    </output>

    <processing>
        <ignore-route-errors value="true"/>
        <tls.actuated.jam-threshold value="30"/>
    </processing>

    <routing>
        <device.rerouting.adaptation-steps value="18"/>
        <device.rerouting.adaptation-interval value="10"/>
    </routing>

    <report>
        <verbose value="true"/>
        <duration-log.statistics value="true"/>
        <no-step-log value="true"/>
    </report>

    <traci_server>
        <remote-port value="52163"/>
    </traci_server>

    <gui_only>
        <gui-settings-file value="SumoConfig/gutesim/osm.view.xml"/>
        <start value="true"/>
    </gui_only>

</sumoConfiguration>
-->

<tripinfos xmlns:xsi="http://www.w3.org/2001/XMLSchema-instance" xsi:noNamespaceSchemaLocation="http://sumo.dlr.de/xsd/tripinfo_file.xsd">
    <tripinfo id="ourVehicle44" depart="12.00" departLane=":2264199819_0_0" departPos="0.00" departSpeed="15.00" departDelay="0.00" arrival="13.00" arrivalLane="461526152#0_0" arrivalPos="3.52" arrivalSpeed="14.91" duration="1.00" routeLength="13.86" waitingTime="0.00" waitingCount="0" stopTime="0.00" timeLoss="0.51" rerouteNo="0" devices="tripinfo_ourVehicle44" vType="DEFAULT_VEHTYPE" speedFactor="2.17" vaporized=""/>
    <tripinfo id="ourVehicle94" depart="12.00" departLane=":25664649_6_0" departPos="0.00" departSpeed="15.00" departDelay="0.00" arrival="13.00" arrivalLane=":25664649_6_0" arrivalPos="5.77" arrivalSpeed="14.38" duration="1.00" routeLength="5.77" waitingTime="0.00" waitingCount="0" stopTime="0.00" timeLoss="0.04" rerouteNo="0" devices="tripinfo_ourVehicle94" vType="DEFAULT_VEHTYPE" speedFactor="1.80" vaporized=""/>
    <tripinfo id="ourVehicle25" depart="13.00" departLane=":25664649_19_0" departPos="0.00" departSpeed="15.00" departDelay="1.00" arrival="14.00" arrivalLane=":25664649_19_0" arrivalPos="5.31" arrivalSpeed="14.01" duration="1.00" routeLength="5.31" waitingTime="0.00" waitingCount="0" stopTime="0.00" timeLoss="0.07" rerouteNo="0" devices="tripinfo_ourVehicle25" vType="DEFAULT_VEHTYPE" speedFactor="3.00" vaporized=""/>
    <tripinfo id="ourVehicle59" depart="12.00" departLane="155186522_0" departPos="0.00" departSpeed="15.00" departDelay="0.00" arrival="14.00" arrivalLane="155186522_0" arrivalPos="18.02" arrivalSpeed="14.03" duration="2.00" routeLength="18.02" waitingTime="0.00" waitingCount="0" stopTime="0.00" timeLoss="0.15" rerouteNo="0" devices="tripinfo_ourVehicle59" vType="DEFAULT_VEHTYPE" speedFactor="1.10" vaporized=""/>
    <tripinfo id="ourVehicle76" depart="14.00" departLane="-461526153#1_0" departPos="0.00" departSpeed="15.00" departDelay="2.00" arrival="16.00" arrivalLane="-461526153#1_0" arrivalPos="15.48" arrivalSpeed="13.74" duration="2.00" routeLength="15.48" waitingTime="0.00" waitingCount="0" stopTime="0.00" timeLoss="0.12" rerouteNo="0" devices="tripinfo_ourVehicle76" vType="DEFAULT_VEHTYPE" speedFactor="1.08" vaporized=""/>
    <tripinfo id="ourVehicle87" depart="15.00" departLane=":10880725066_0_0" departPos="0.00" departSpeed="15.00" departDelay="3.00" arrival="20.00" arrivalLane="1170522572#0_0" arrivalPos="55.56" arrivalSpeed="14.40" duration="5.00" routeLength="63.77" waitingTime="0.00" waitingCount="0" stopTime="0.00" timeLoss="0.22" rerouteNo="0" devices="tripinfo_ourVehicle87" vType="DEFAULT_VEHTYPE" speedFactor="1.08" vaporized=""/>
    <tripinfo id="ourVehicle68" depart="21.00" departLane=":25664649_12_0" departPos="0.00" departSpeed="15.00" departDelay="9.00" arrival="22.00" arrivalLane=":25664649_12_0" arrivalPos="10.24" arrivalSpeed="14.03" duration="1.00" routeLength="10.24" waitingTime="0.00" waitingCount="0" stopTime="0.00" timeLoss="0.07" rerouteNo="0" devices="tripinfo_ourVehicle68" vType="DEFAULT_VEHTYPE" speedFactor="2.09" vaporized=""/>
    <tripinfo id="ourVehicle82" depart="18.00" departLane="-461526153#1_0" departPos="0.00" departSpeed="15.00" departDelay="6.00" arrival="22.00" arrivalLane="-1448681854#1_0" arrivalPos="11.50" arrivalSpeed="15.28" duration="4.00" routeLength="44.66" waitingTime="0.00" waitingCount="0" stopTime="0.00" timeLoss="0.25" rerouteNo="0" devices="tripinfo_ourVehicle82" vType="DEFAULT_VEHTYPE" speedFactor="1.14" vaporized=""/>
    <tripinfo id="ourVehicle2" depart="12.00" departLane="-153698380#2_0" departPos="0.00" departSpeed="15.00" departDelay="0.00" arrival="26.00" arrivalLane="-155186522_1" arrivalPos="18.04" arrivalSpeed="9.76" duration="14.00" routeLength="145.03" waitingTime="0.00" waitingCount="0" stopTime="0.00" timeLoss="5.77" rerouteNo="0" devices="tripinfo_ourVehicle2" vType="DEFAULT_VEHTYPE" speedFactor="1.80" vaporized=""/>
    <tripinfo id="ourVehicle79" depart="15.00" departLane=":cluster_21487242_6583929460_6583929466_3_0" departPos="0.00" departSpeed="15.00" departDelay="3.00" arrival="28.00" arrivalLane="155186522_1" arrivalPos="18.02" arrivalSpeed="14.54" duration="13.00" routeLength="230.03" waitingTime="0.00" waitingCount="0" stopTime="0.00" timeLoss="4.61" rerouteNo="0" devices="tripinfo_ourVehicle79" vType="DEFAULT_VEHTYPE" speedFactor="2.10" vaporized=""/>
    <tripinfo id="ourVehicle85" depart="12.00" departLane=":25662562_0_0" departPos="0.00" departSpeed="0.00" departDelay="0.00" arrival="28.00" arrivalLane="690322561_0" arrivalPos="35.18" arrivalSpeed="13.22" duration="16.00" routeLength="141.65" waitingTime="1.00" waitingCount="1" stopTime="0.00" timeLoss="7.13" rerouteNo="0" devices="tripinfo_ourVehicle85" vType="DEFAULT_VEHTYPE" speedFactor="2.01" vaporized=""/>
    <tripinfo id="ourVehicle1" depart="12.00" departLane=":25664649_19_0" departPos="0.00" departSpeed="15.00" departDelay="0.00" arrival="31.00" arrivalLane="-111833185_0" arrivalPos="151.83" arrivalSpeed="5.24" duration="19.00" routeLength="180.75" waitingTime="0.00" waitingCount="0" stopTime="0.00" timeLoss="11.31" rerouteNo="0" devices="tripinfo_ourVehicle1" vType="DEFAULT_VEHTYPE" speedFactor="3.00" vaporized=""/>
    <tripinfo id="ourVehicle75" depart="13.00" departLane=":25662562_11_0" departPos="0.00" departSpeed="0.00" departDelay="1.00" arrival="31.00" arrivalLane="-292429062_0" arrivalPos="27.96" arrivalSpeed="18.13" duration="18.00" routeLength="160.08" waitingTime="4.00" waitingCount="1" stopTime="0.00" timeLoss="12.93" rerouteNo="0" devices="tripinfo_ourVehicle75" vType="DEFAULT_VEHTYPE" speedFactor="4.11" vaporized=""/>
    <tripinfo id="ourVehicle13" depart="14.00" departLane=":25664649_17_0" departPos="0.00" departSpeed="15.00" departDelay="2.00" arrival="32.00" arrivalLane="461526153#0_0" arrivalPos="15.49" arrivalSpeed="8.33" duration="18.00" routeLength="198.86" waitingTime="0.00" waitingCount="0" stopTime="0.00" timeLoss="11.76" rerouteNo="0" devices="tripinfo_ourVehicle13" vType="DEFAULT_VEHTYPE" speedFactor="3.00" vaporized=""/>
    <tripinfo id="ourVehicle38" depart="15.00" departLane=":2959830775_5_0" departPos="0.00" departSpeed="0.00" departDelay="3.00" arrival="34.00" arrivalLane="690322561_0" arrivalPos="35.18" arrivalSpeed="13.63" duration="19.00" routeLength="111.55" waitingTime="3.00" waitingCount="2" stopTime="0.00" timeLoss="14.95" rerouteNo="0" devices="tripinfo_ourVehicle38" vType="DEFAULT_VEHTYPE" speedFactor="4.11" vaporized=""/>
    <tripinfo id="ourVehicle28" depart="34.00" departLane=":2959830775_3_0" departPos="0.00" departSpeed="15.00" departDelay="22.00" arrival="35.00" arrivalLane=":2959830775_3_0" arrivalPos="9.93" arrivalSpeed="13.83" duration="1.00" routeLength="9.93" waitingTime="0.00" waitingCount="0" stopTime="0.00" timeLoss="0.08" rerouteNo="0" devices="tripinfo_ourVehicle28" vType="DEFAULT_VEHTYPE" speedFactor="1.80" vaporized=""/>
    <tripinfo id="ourVehicle47" depart="13.00" departLane=":2264199819_6_0" departPos="0.00" departSpeed="2.60" departDelay="1.00" arrival="36.00" arrivalLane="188386313#0_1" arrivalPos="106.96" arrivalSpeed="23.89" duration="23.00" routeLength="153.75" waitingTime="4.00" waitingCount="1" stopTime="0.00" timeLoss="15.17" rerouteNo="0" devices="tripinfo_ourVehicle47" vType="DEFAULT_VEHTYPE" speedFactor="1.78" vaporized=""/>
    <tripinfo id="ourVehicle6" depart="13.00" departLane=":2959830775_3_0" departPos="0.00" departSpeed="15.00" departDelay="1.00" arrival="37.00" arrivalLane="153698380#0_0" arrivalPos="85.99" arrivalSpeed="4.40" duration="24.00" routeLength="186.97" waitingTime="0.00" waitingCount="0" stopTime="0.00" timeLoss="11.15" rerouteNo="0" devices="tripinfo_ourVehicle6" vType="DEFAULT_VEHTYPE" speedFactor="1.80" vaporized=""/>
    <tripinfo id="ourVehicle20" depart="21.00" departLane=":25664649_2_0" departPos="0.00" departSpeed="0.00" departDelay="9.00" arrival="42.00" arrivalLane="1119935543#0_0" arrivalPos="71.98" arrivalSpeed="24.55" duration="21.00" routeLength="299.23" waitingTime="1.00" waitingCount="1" stopTime="0.00" timeLoss="6.16" rerouteNo="0" devices="tripinfo_ourVehicle20" vType="DEFAULT_VEHTYPE" speedFactor="1.80" vaporized=""/>
    <tripinfo id="ourVehicle17" depart="12.00" departLane=":25664649_0_0" departPos="0.00" departSpeed="0.00" departDelay="0.00" arrival="44.00" arrivalLane="461526153#0_0" arrivalPos="15.49" arrivalSpeed="15.82" duration="32.00" routeLength="231.58" waitingTime="7.00" waitingCount="1" stopTime="0.00" timeLoss="21.19" rerouteNo="0" devices="tripinfo_ourVehicle17" vType="DEFAULT_VEHTYPE" speedFactor="2.19" vaporized=""/>
    <tripinfo id="ourVehicle18" depart="15.00" departLane=":25664649_13_0" departPos="0.00" departSpeed="5.17" departDelay="3.00" arrival="45.00" arrivalLane="292429062_0" arrivalPos="27.96" arrivalSpeed="13.91" duration="30.00" routeLength="433.05" waitingTime="0.00" waitingCount="0" stopTime="0.00" timeLoss="5.59" rerouteNo="0" devices="tripinfo_ourVehicle18" vType="DEFAULT_VEHTYPE" speedFactor="1.80" vaporized=""/>
    <tripinfo id="ourVehicle33" depart="12.00" departLane=":2959830775_0_0" departPos="0.00" departSpeed="15.00" departDelay="0.00" arrival="46.00" arrivalLane="1447972531#1_0" arrivalPos="85.06" arrivalSpeed="14.68" duration="34.00" routeLength="294.29" waitingTime="7.00" waitingCount="1" stopTime="0.00" timeLoss="18.22" rerouteNo="0" devices="tripinfo_ourVehicle33" vType="DEFAULT_VEHTYPE" speedFactor="2.29" vaporized=""/>
    <tripinfo id="ourVehicle26" depart="24.00" departLane=":25664649_0_0" departPos="0.00" departSpeed="0.00" departDelay="12.00" arrival="48.00" arrivalLane="4412868_0" arrivalPos="1.84" arrivalSpeed="4.00" duration="24.00" routeLength="48.67" waitingTime="10.00" waitingCount="3" stopTime="0.00" timeLoss="20.53" rerouteNo="0" devices="tripinfo_ourVehicle26" vType="DEFAULT_VEHTYPE" speedFactor="2.19" vaporized=""/>
    <tripinfo id="ourVehicle31" depart="14.00" departLane=":25664649_5_0" departPos="0.00" departSpeed="0.00" departDelay="2.00" arrival="49.00" arrivalLane="292429062_0" arrivalPos="27.96" arrivalSpeed="14.66" duration="35.00" routeLength="460.91" waitingTime="1.00" waitingCount="1" stopTime="0.00" timeLoss="7.81" rerouteNo="0" devices="tripinfo_ourVehicle31" vType="DEFAULT_VEHTYPE" speedFactor="1.80" vaporized=""/>
    <tripinfo id="ourVehicle10" depart="13.00" departLane=":25664649_10_0" departPos="0.00" departSpeed="0.00" departDelay="1.00" arrival="50.00" arrivalLane="1119936840#0_0" arrivalPos="5.49" arrivalSpeed="19.54" duration="37.00" routeLength="353.44" waitingTime="7.00" waitingCount="1" stopTime="0.00" timeLoss="18.44" rerouteNo="0" devices="tripinfo_ourVehicle10" vType="DEFAULT_VEHTYPE" speedFactor="1.80" vaporized=""/>
    <tripinfo id="ourVehicle23" depart="12.00" departLane="111833185_0" departPos="0.00" departSpeed="15.00" departDelay="0.00" arrival="51.00" arrivalLane="188386313#0_0" arrivalPos="106.96" arrivalSpeed="23.44" duration="39.00" routeLength="364.23" waitingTime="7.00" waitingCount="1" stopTime="0.00" timeLoss="17.48" rerouteNo="0" devices="tripinfo_ourVehicle23" vType="DEFAULT_VEHTYPE" speedFactor="1.80" vaporized=""/>
    <tripinfo id="ourVehicle73" depart="30.00" departLane=":2959830775_2_0" departPos="0.00" departSpeed="15.00" departDelay="18.00" arrival="53.00" arrivalLane="1170522572#0_1" arrivalPos="55.56" arrivalSpeed="6.46" duration="23.00" routeLength="331.02" waitingTime="0.00" waitingCount="0" stopTime="0.00" timeLoss="15.68" rerouteNo="0" devices="tripinfo_ourVehicle73" vType="DEFAULT_VEHTYPE" speedFactor="4.11" vaporized=""/>
    <tripinfo id="ourVehicle53" depart="30.00" departLane=":25664649_17_0" departPos="0.00" departSpeed="0.00" departDelay="18.00" arrival="55.00" arrivalLane="153698380#0_0" arrivalPos="85.99" arrivalSpeed="24.48" duration="25.00" routeLength="385.66" waitingTime="2.00" waitingCount="1" stopTime="0.00" timeLoss="12.12" rerouteNo="0" devices="tripinfo_ourVehicle53" vType="DEFAULT_VEHTYPE" speedFactor="3.00" vaporized=""/>
    <tripinfo id="ourVehicle27" depart="12.00" departLane="-461526153#1_0" departPos="0.00" departSpeed="15.00" departDelay="0.00" arrival="58.00" arrivalLane="342968607#0_1" arrivalPos="124.78" arrivalSpeed="15.61" duration="46.00" routeLength="464.79" waitingTime="0.00" waitingCount="0" stopTime="0.00" timeLoss="14.38" rerouteNo="0" devices="tripinfo_ourVehicle27" vType="DEFAULT_VEHTYPE" speedFactor="1.17" vaporized=""/>
    <tripinfo id="ourVehicle91" depart="13.00" departLane=":2264199819_11_0" departPos="0.00" departSpeed="0.00" departDelay="1.00" arrival="59.00" arrivalLane="342968607#0_1" arrivalPos="124.78" arrivalSpeed="18.02" duration="46.00" routeLength="434.86" waitingTime="2.00" waitingCount="1" stopTime="0.00" timeLoss="37.56" rerouteNo="0" devices="tripinfo_ourVehicle91" vType="DEFAULT_VEHTYPE" speedFactor="4.11" vaporized=""/>
    <tripinfo id="ourVehicle0" depart="12.00" departLane="169999355#0_0" departPos="0.00" departSpeed="15.00" departDelay="0.00" arrival="60.00" arrivalLane="1119935543#0_0" arrivalPos="71.98" arrivalSpeed="24.00" duration="48.00" routeLength="409.73" waitingTime="10.00" waitingCount="2" stopTime="0.00" timeLoss="24.53" rerouteNo="0" devices="tripinfo_ourVehicle0" vType="DEFAULT_VEHTYPE" speedFactor="1.80" vaporized=""/>
    <tripinfo id="ourVehicle14" depart="32.00" departLane=":2959830775_3_0" departPos="0.00" departSpeed="15.00" departDelay="20.00" arrival="62.00" arrivalLane="461526152#0_1" arrivalPos="3.52" arrivalSpeed="10.28" duration="30.00" routeLength="360.66" waitingTime="0.00" waitingCount="0" stopTime="0.00" timeLoss="12.31" rerouteNo="0" devices="tripinfo_ourVehicle14" vType="DEFAULT_VEHTYPE" speedFactor="1.80" vaporized=""/>
    <tripinfo id="ourVehicle19" depart="14.00" departLane=":cluster_21487242_6583929460_6583929466_0_0" departPos="0.00" departSpeed="0.00" departDelay="2.00" arrival="62.00" arrivalLane="-4412868_0" arrivalPos="1.83" arrivalSpeed="7.88" duration="48.00" routeLength="111.54" waitingTime="15.00" waitingCount="4" stopTime="0.00" timeLoss="37.99" rerouteNo="0" devices="tripinfo_ourVehicle19" vType="DEFAULT_VEHTYPE" speedFactor="1.35" vaporized=""/>
    <tripinfo id="ourVehicle30" depart="12.00" departLane=":3343070508_0_0" departPos="0.00" departSpeed="15.00" departDelay="0.00" arrival="62.00" arrivalLane="461526152#0_0" arrivalPos="3.52" arrivalSpeed="9.47" duration="50.00" routeLength="393.29" waitingTime="15.00" waitingCount="1" stopTime="0.00" timeLoss="41.24" rerouteNo="0" devices="tripinfo_ourVehicle30" vType="DEFAULT_VEHTYPE" speedFactor="4.11" vaporized=""/>
    <tripinfo id="ourVehicle70" depart="61.00" departLane=":25664649_5_0" departPos="0.00" departSpeed="15.00" departDelay="49.00" arrival="63.00" arrivalLane=":25664649_5_0" arrivalPos="14.49" arrivalSpeed="13.73" duration="2.00" routeLength="14.49" waitingTime="0.00" waitingCount="0" stopTime="0.00" timeLoss="0.17" rerouteNo="0" devices="tripinfo_ourVehicle70" vType="DEFAULT_VEHTYPE" speedFactor="1.80" vaporized=""/>
    <tripinfo id="ourVehicle12" depart="12.00" departLane="1447972531#1_0" departPos="0.00" departSpeed="15.00" departDelay="0.00" arrival="67.00" arrivalLane="1447972531#0_0" arrivalPos="2.32" arrivalSpeed="9.63" duration="55.00" routeLength="206.69" waitingTime="13.00" waitingCount="3" stopTime="0.00" timeLoss="39.85" rerouteNo="0" devices="tripinfo_ourVehicle12" vType="DEFAULT_VEHTYPE" speedFactor="1.80" vaporized=""/>
    <tripinfo id="ourVehicle32" depart="13.00" departLane=":cluster_21487242_6583929460_6583929466_3_0" departPos="0.00" departSpeed="15.00" departDelay="1.00" arrival="67.00" arrivalLane="-461526153#1_0" arrivalPos="15.48" arrivalSpeed="11.69" duration="54.00" routeLength="484.74" waitingTime="19.00" waitingCount="1" stopTime="0.00" timeLoss="35.44" rerouteNo="0" devices="tripinfo_ourVehicle32" vType="DEFAULT_VEHTYPE" speedFactor="2.10" vaporized=""/>
    <tripinfo id="veh0" depart="0.00" departLane="188386313#0_0" departPos="5.10" departSpeed="0.00" departDelay="0.00" arrival="68.00" arrivalLane="-1448681854#1_0" arrivalPos="11.50" arrivalSpeed="8.59" duration="68.00" routeLength="631.56" waitingTime="0.00" waitingCount="0" stopTime="0.00" timeLoss="15.08" rerouteNo="1" devices="tripinfo_veh0 routing_veh0" vType="veh_passenger" speedFactor="1.06" vaporized=""/>
    <tripinfo id="ourVehicle9" depart="18.00" departLane=":2959830775_3_0" departPos="0.00" departSpeed="0.00" departDelay="6.00" arrival="70.00" arrivalLane="461526153#0_0" arrivalPos="15.49" arrivalSpeed="12.63" duration="52.00" routeLength="362.72" waitingTime="14.00" waitingCount="2" stopTime="0.00" timeLoss="34.53" rerouteNo="0" devices="tripinfo_ourVehicle9" vType="DEFAULT_VEHTYPE" speedFactor="1.80" vaporized=""/>
    <tripinfo id="ourVehicle34" depart="28.00" departLane=":2959830775_2_0" departPos="0.00" departSpeed="15.00" departDelay="16.00" arrival="74.00" arrivalLane="-461526153#1_0" arrivalPos="15.48" arrivalSpeed="17.62" duration="46.00" routeLength="381.70" waitingTime="12.00" waitingCount="1" stopTime="0.00" timeLoss="37.34" rerouteNo="0" devices="tripinfo_ourVehicle34" vType="DEFAULT_VEHTYPE" speedFactor="4.11" vaporized=""/>
    <tripinfo id="ourVehicle51" depart="34.00" departLane=":25664649_0_0" departPos="0.00" departSpeed="1.74" departDelay="22.00" arrival="74.00" arrivalLane="-292429062_0" arrivalPos="27.96" arrivalSpeed="13.75" duration="40.00" routeLength="489.24" waitingTime="1.00" waitingCount="1" stopTime="0.00" timeLoss="15.84" rerouteNo="0" devices="tripinfo_ourVehicle51" vType="DEFAULT_VEHTYPE" speedFactor="2.19" vaporized=""/>
    <tripinfo id="ourVehicle66" depart="43.00" departLane=":25664649_17_0" departPos="0.00" departSpeed="0.00" departDelay="31.00" arrival="77.00" arrivalLane="292429062_0" arrivalPos="27.96" arrivalSpeed="24.13" duration="34.00" routeLength="423.89" waitingTime="10.00" waitingCount="2" stopTime="0.00" timeLoss="20.00" rerouteNo="0" devices="tripinfo_ourVehicle66" vType="DEFAULT_VEHTYPE" speedFactor="3.00" vaporized=""/>
    <tripinfo id="ourVehicle3" depart="15.00" departLane=":2959830775_2_0" departPos="0.00" departSpeed="0.00" departDelay="3.00" arrival="78.00" arrivalLane="1119935543#0_1" arrivalPos="71.98" arrivalSpeed="33.60" duration="63.00" routeLength="560.08" waitingTime="15.00" waitingCount="2" stopTime="0.00" timeLoss="50.82" rerouteNo="0" devices="tripinfo_ourVehicle3" vType="DEFAULT_VEHTYPE" speedFactor="4.11" vaporized=""/>
    <tripinfo id="ourVehicle90" depart="13.00" departLane=":25662562_6_0" departPos="0.00" departSpeed="15.00" departDelay="1.00" arrival="79.00" arrivalLane="-4412868_0" arrivalPos="1.83" arrivalSpeed="8.31" duration="66.00" routeLength="364.70" waitingTime="29.00" waitingCount="1" stopTime="0.00" timeLoss="57.75" rerouteNo="0" devices="tripinfo_ourVehicle90" vType="DEFAULT_VEHTYPE" speedFactor="4.11" vaporized=""/>
    <tripinfo id="ourVehicle71" depart="12.00" departLane=":cluster_21487242_6583929460_6583929466_6_0" departPos="0.00" departSpeed="0.00" departDelay="0.00" arrival="84.00" arrivalLane="-4412868_0" arrivalPos="1.83" arrivalSpeed="9.40" duration="72.00" routeLength="573.28" waitingTime="17.00" waitingCount="2" stopTime="0.00" timeLoss="44.43" rerouteNo="0" devices="tripinfo_ourVehicle71" vType="DEFAULT_VEHTYPE" speedFactor="1.75" vaporized=""/>
    <tripinfo id="ourVehicle99" depart="83.00" departLane=":25664649_5_0" departPos="0.00" departSpeed="15.00" departDelay="70.00" arrival="84.00" arrivalLane=":25664649_5_0" arrivalPos="14.49" arrivalSpeed="14.72" duration="1.00" routeLength="14.49" waitingTime="0.00" waitingCount="0" stopTime="0.00" timeLoss="0.02" rerouteNo="0" devices="tripinfo_ourVehicle99" vType="DEFAULT_VEHTYPE" speedFactor="1.80" vaporized=""/>
    <tripinfo id="ourVehicle52" depart="16.00" departLane="111833185_0" departPos="0.00" departSpeed="15.00" departDelay="4.00" arrival="89.00" arrivalLane="1170522572#0_1" arrivalPos="55.56" arrivalSpeed="24.99" duration="73.00" routeLength="676.26" waitingTime="19.00" waitingCount="2" stopTime="0.00" timeLoss="37.43" rerouteNo="0" devices="tripinfo_ourVehicle52" vType="DEFAULT_VEHTYPE" speedFactor="1.80" vaporized=""/>
    <tripinfo id="ourVehicle8" depart="14.00" departLane="169999355#0_0" departPos="0.00" departSpeed="15.00" departDelay="2.00" arrival="116.00" arrivalLane="461526152#0_1" arrivalPos="3.52" arrivalSpeed="10.24" duration="102.00" routeLength="262.71" waitingTime="57.00" waitingCount="4" stopTime="0.00" timeLoss="84.83" rerouteNo="0" devices="tripinfo_ourVehicle8" vType="DEFAULT_VEHTYPE" speedFactor="1.80" vaporized=""/>
    <tripinfo id="ourVehicle40" depart="65.00" departLane=":25664649_13_0" departPos="0.00" departSpeed="15.00" departDelay="53.00" arrival="116.00" arrivalLane="-461526153#1_0" arrivalPos="15.48" arrivalSpeed="12.55" duration="51.00" routeLength="129.40" waitingTime="35.00" waitingCount="1" stopTime="0.00" timeLoss="43.02" rerouteNo="0" devices="tripinfo_ourVehicle40" vType="DEFAULT_VEHTYPE" speedFactor="1.80" vaporized=""/>
    <tripinfo id="ourVehicle55" depart="67.00" departLane=":25664649_13_0" departPos="0.00" departSpeed="15.00" departDelay="55.00" arrival="120.00" arrivalLane="-1448681854#1_0" arrivalPos="11.50" arrivalSpeed="18.04" duration="53.00" routeLength="158.58" waitingTime="33.00" waitingCount="1" stopTime="0.00" timeLoss="43.96" rerouteNo="0" devices="tripinfo_ourVehicle55" vType="DEFAULT_VEHTYPE" speedFactor="1.80" vaporized=""/>
    <tripinfo id="ourVehicle42" depart="28.00" departLane="169999355#0_0" departPos="0.00" departSpeed="15.00" departDelay="16.00" arrival="122.00" arrivalLane="-461526153#1_0" arrivalPos="15.48" arrivalSpeed="15.79" duration="94.00" routeLength="242.27" waitingTime="42.00" waitingCount="4" stopTime="0.00" timeLoss="77.97" rerouteNo="0" devices="tripinfo_ourVehicle42" vType="DEFAULT_VEHTYPE" speedFactor="1.80" vaporized=""/>
    <tripinfo id="ourVehicle80" depart="81.00" departLane=":13285252552_0_0" departPos="0.00" departSpeed="15.00" departDelay="69.00" arrival="127.00" arrivalLane="1447972531#1_0" arrivalPos="85.06" arrivalSpeed="15.15" duration="46.00" routeLength="110.60" waitingTime="31.00" waitingCount="1" stopTime="0.00" timeLoss="41.45" rerouteNo="0" devices="tripinfo_ourVehicle80" vType="DEFAULT_VEHTYPE" speedFactor="3.00" vaporized=""/>
    <tripinfo id="ourVehicle41" depart="12.00" departLane=":25662562_4_0" departPos="0.00" departSpeed="15.00" departDelay="0.00" arrival="134.00" arrivalLane="1447972531#1_0" arrivalPos="85.06" arrivalSpeed="10.97" duration="122.00" routeLength="398.33" waitingTime="59.00" waitingCount="5" stopTime="0.00" timeLoss="86.14" rerouteNo="0" devices="tripinfo_ourVehicle41" vType="DEFAULT_VEHTYPE" speedFactor="1.35" vaporized=""/>
    <tripinfo id="ourVehicle60" depart="18.00" departLane="111833185_0" departPos="0.00" departSpeed="15.00" departDelay="6.00" arrival="138.00" arrivalLane="-155186522_1" arrivalPos="18.04" arrivalSpeed="10.04" duration="120.00" routeLength="499.82" waitingTime="59.00" waitingCount="4" stopTime="0.00" timeLoss="92.57" rerouteNo="0" devices="tripinfo_ourVehicle60" vType="DEFAULT_VEHTYPE" speedFactor="1.80" vaporized=""/>
    <tripinfo id="ourVehicle11" depart="16.00" departLane="169999355#0_0" departPos="0.00" departSpeed="15.00" departDelay="4.00" arrival="139.00" arrivalLane="-153698380#2_0" arrivalPos="86.38" arrivalSpeed="14.95" duration="123.00" routeLength="598.74" waitingTime="60.00" waitingCount="5" stopTime="0.00" timeLoss="86.75" rerouteNo="0" devices="tripinfo_ourVehicle11" vType="DEFAULT_VEHTYPE" speedFactor="1.80" vaporized=""/>
    <tripinfo id="ourVehicle58" depart="138.00" departLane=":25664649_10_0" departPos="0.00" departSpeed="15.00" departDelay="126.00" arrival="140.00" arrivalLane=":25664649_10_0" arrivalPos="16.80" arrivalSpeed="14.63" duration="2.00" routeLength="16.80" waitingTime="0.00" waitingCount="0" stopTime="0.00" timeLoss="0.04" rerouteNo="0" devices="tripinfo_ourVehicle58" vType="DEFAULT_VEHTYPE" speedFactor="1.80" vaporized=""/>
    <tripinfo id="ourVehicle63" depart="20.00" departLane=":6476525719_1_0" departPos="0.00" departSpeed="15.00" departDelay="8.00" arrival="141.00" arrivalLane="1119935543#0_0" arrivalPos="71.98" arrivalSpeed="24.44" duration="121.00" routeLength="447.94" waitingTime="64.00" waitingCount="5" stopTime="0.00" timeLoss="96.07" rerouteNo="0" devices="tripinfo_ourVehicle63" vType="DEFAULT_VEHTYPE" speedFactor="1.80" vaporized=""/>
    <tripinfo id="ourVehicle39" depart="25.00" departLane="169999355#0_0" departPos="0.00" departSpeed="15.00" departDelay="13.00" arrival="142.00" arrivalLane="-292429062_0" arrivalPos="27.96" arrivalSpeed="11.35" duration="117.00" routeLength="578.55" waitingTime="44.00" waitingCount="4" stopTime="0.00" timeLoss="82.51" rerouteNo="0" devices="tripinfo_ourVehicle39" vType="DEFAULT_VEHTYPE" speedFactor="1.80" vaporized=""/>
    <tripinfo id="ourVehicle89" depart="78.00" departLane=":25664649_5_0" departPos="0.00" departSpeed="0.00" departDelay="66.00" arrival="143.00" arrivalLane="155186522_1" arrivalPos="18.02" arrivalSpeed="17.78" duration="65.00" routeLength="357.41" waitingTime="29.00" waitingCount="2" stopTime="0.00" timeLoss="45.65" rerouteNo="0" devices="tripinfo_ourVehicle89" vType="DEFAULT_VEHTYPE" speedFactor="1.80" vaporized=""/>
    <tripinfo id="ourVehicle81" depart="41.00" departLane=":25662562_11_0" departPos="0.00" departSpeed="15.00" departDelay="29.00" arrival="144.00" arrivalLane="-4412868_0" arrivalPos="1.83" arrivalSpeed="12.56" duration="103.00" routeLength="310.13" waitingTime="51.00" waitingCount="5" stopTime="0.00" timeLoss="93.73" rerouteNo="0" devices="tripinfo_ourVehicle81" vType="DEFAULT_VEHTYPE" speedFactor="4.11" vaporized=""/>
    <tripinfo id="ourVehicle74" depart="73.00" departLane=":25664649_13_0" departPos="0.00" departSpeed="0.00" departDelay="61.00" arrival="147.00" arrivalLane="342968607#0_1" arrivalPos="124.78" arrivalSpeed="24.63" duration="74.00" routeLength="464.93" waitingTime="31.00" waitingCount="2" stopTime="0.00" timeLoss="51.08" rerouteNo="0" devices="tripinfo_ourVehicle74" vType="DEFAULT_VEHTYPE" speedFactor="1.80" vaporized=""/>
    <tripinfo id="ourVehicle56" depart="50.00" departLane="169999355#0_0" departPos="0.00" departSpeed="15.00" departDelay="38.00" arrival="148.00" arrivalLane="342968607#0_1" arrivalPos="124.78" arrivalSpeed="24.47" duration="98.00" routeLength="577.80" waitingTime="35.00" waitingCount="2" stopTime="0.00" timeLoss="67.53" rerouteNo="0" devices="tripinfo_ourVehicle56" vType="DEFAULT_VEHTYPE" speedFactor="1.80" vaporized=""/>
    <tripinfo id="ourVehicle43" depart="33.00" departLane=":cluster_21487242_6583929460_6583929466_0_0" departPos="0.00" departSpeed="15.00" departDelay="21.00" arrival="149.00" arrivalLane="111833185_0" arrivalPos="151.83" arrivalSpeed="9.95" duration="116.00" routeLength="424.52" waitingTime="39.00" waitingCount="4" stopTime="0.00" timeLoss="77.66" rerouteNo="0" devices="tripinfo_ourVehicle43" vType="DEFAULT_VEHTYPE" speedFactor="1.35" vaporized=""/>
    <tripinfo id="ourVehicle83" depart="48.00" departLane=":25664649_3_0" departPos="0.00" departSpeed="1.79" departDelay="36.00" arrival="158.00" arrivalLane="-153698380#2_0" arrivalPos="86.38" arrivalSpeed="20.61" duration="110.00" routeLength="501.25" waitingTime="65.00" waitingCount="2" stopTime="0.00" timeLoss="96.70" rerouteNo="0" devices="tripinfo_ourVehicle83" vType="DEFAULT_VEHTYPE" speedFactor="4.11" vaporized=""/>
    <tripinfo id="ourVehicle84" depart="124.00" departLane=":25664649_0_0" departPos="0.00" departSpeed="0.00" departDelay="112.00" arrival="163.00" arrivalLane="-153698380#2_0" arrivalPos="86.38" arrivalSpeed="18.07" duration="39.00" routeLength="509.43" waitingTime="1.00" waitingCount="1" stopTime="0.00" timeLoss="14.16" rerouteNo="0" devices="tripinfo_ourVehicle84" vType="DEFAULT_VEHTYPE" speedFactor="2.19" vaporized=""/>
    <tripinfo id="ourVehicle69" depart="12.00" departLane=":25664649_11_0" departPos="0.00" departSpeed="15.00" departDelay="0.00" arrival="192.00" arrivalLane="461526153#0_0" arrivalPos="15.49" arrivalSpeed="16.71" duration="180.00" routeLength="516.75" waitingTime="98.00" waitingCount="7" stopTime="0.00" timeLoss="165.84" rerouteNo="0" devices="tripinfo_ourVehicle69" vType="DEFAULT_VEHTYPE" speedFactor="4.11" vaporized=""/>