<?xml version="1.0" encoding="UTF-8"?>

<!-- generated on 2026-01-20T22:58:16.620824+01:00 by Eclipse SUMO sumo 1.25.0
<sumoConfiguration xmlns:xsi="http://www.w3.org/2001/XMLSchema-instance" xsi:noNamespaceSchemaLocation="http://sumo.dlr.de/xsd/sumoConfiguration.xsd">

    <input>
        <net-file value="SumoConfig/gutesim/osm.net.xml.gz"/>
        <route-files value="SumoConfig/gutesim/osm.passenger.trips.xml"/>
        <additional-files value="SumoConfig/gutesim/osm.poly.xml.gz,SumoConfig/gutesim/output.add.xml"/>
    </input>

    <output>
        <tripinfo-output value="SumoConfig/gutesim/tripinfos.xml"/>
        <statistic-output value="SumoConfig/gutesim/stats.xml"/>
    </output>

    <processing>
        <ignore-route-errors value="true"/>
        <tls.actuated.jam-threshold value="30"/>
    </processing>

    <routing>
        <device.rerouting.adaptation-steps value="18"/>
        <device.rerouting.adaptation-interval value="10"/>
    </routing>

    <report>
        <verbose value="true"/>
        <duration-log.statistics value="true"/>
        <no-step-log value="true"/>
    </report>

    <traci_server>
        <remote-port value="33051"/>
    </traci_server>

    <gui_only>
        <gui-settings-file value="SumoConfig/gutesim/osm.view.xml"/>
        <start value="true"/>
    </gui_only>

</sumoConfiguration>
-->

<tripinfos xmlns:xsi="http://www.w3.org/2001/XMLSchema-instance" xsi:noNamespaceSchemaLocation="http://sumo.dlr.de/xsd/tripinfo_file.xsd">
    <tripinfo id="veh0" depart="0.00" departLane="188386313#0_0" departPos="5.10" departSpeed="0.00" departDelay="0.00" arrival="67.00" arrivalLane="-1448681854#1_0" arrivalPos="11.50" arrivalSpeed="8.51" duration="67.00" routeLength="631.56" waitingTime="0.00" waitingCount="0" stopTime="0.00" timeLoss="13.11" rerouteNo="1" devices="tripinfo_veh0 routing_veh0" vType="veh_passenger" speedFactor="1.06" vaporized=""/>
    <tripinfo id="ourVehicle1" depart="138.00" departLane="194069450_0" departPos="0.00" departSpeed="15.00" departDelay="0.00" arrival="155.00" arrivalLane="-1447972531#0_0" arrivalPos="2.29" arrivalSpeed="8.14" duration="17.00" routeLength="160.96" waitingTime="0.00" waitingCount="0" stopTime="0.00" timeLoss="1.28" rerouteNo="0" devices="tripinfo_ourVehicle1" vType="DEFAULT_VEHTYPE" speedFactor="1.08" vaporized=""/>
    <tripinfo id="ourVehicle0" depart="135.00" departLane=":25664649_11_0" departPos="0.00" departSpeed="15.00" departDelay="0.00" arrival="161.00" arrivalLane="4412868_0" arrivalPos="1.84" arrivalSpeed="13.24" duration="26.00" routeLength="341.38" waitingTime="0.00" waitingCount="0" stopTime="0.00" timeLoss="15.31" rerouteNo="0" devices="tripinfo_ourVehicle0" vType="DEFAULT_VEHTYPE" speedFactor="4.11" vaporized=""/>
    <tripinfo id="ourVehicle2" depart="142.00" departLane=":cluster_25661397_3767874535_3767874536_0_0" departPos="0.00" departSpeed="15.00" departDelay="0.00" arrival="165.00" arrivalLane="1119935543#0_1" arrivalPos="71.98" arrivalSpeed="24.54" duration="23.00" routeLength="437.97" waitingTime="0.00" waitingCount="0" stopTime="0.00" timeLoss="3.44" rerouteNo="0" devices="tripinfo_ourVehicle2" vType="DEFAULT_VEHTYPE" speedFactor="1.79" vaporized=""/>
