<?xml version="1.0" encoding="UTF-8"?>

<!-- generated on 2026-01-21 00:20:59 by Eclipse SUMO sumo Version 1.24.0
<sumoConfiguration xmlns:xsi="http://www.w3.org/2001/XMLSchema-instance" xsi:noNamespaceSchemaLocation="http://sumo.dlr.de/xsd/sumoConfiguration.xsd">

    <input>
        <net-file value="SumoConfig/gutesim/osm.net.xml.gz"/>
        <route-files value="SumoConfig/gutesim/osm.passenger.trips.xml"/>
        <additional-files value="SumoConfig/gutesim/osm.poly.xml.gz,SumoConfig/gutesim/output.add.xml"/>
    </input>

    <output>
        <tripinfo-output value="SumoConfig/gutesim/tripinfos.xml"/>
        <statistic-output value="SumoConfig/gutesim/stats.xml"/>
    </output>

    <processing>
        <ignore-route-errors value="true"/>
        <tls.actuated.jam-threshold value="30"/>
    </processing>

    <routing>
        <device.rerouting.adaptation-steps value="18"/>
        <device.rerouting.adaptation-interval value="10"/>
    </routing>

    <report>
        <verbose value="true"/>
        <duration-log.statistics value="true"/>
        <no-step-log value="true"/>
    </report>

    <traci_server>
        <remote-port value="62199"/>
    </traci_server>

    <gui_only>
        <gui-settings-file value="SumoConfig/gutesim/osm.view.xml"/>
        <start value="true"/>
    </gui_only>

</sumoConfiguration>
-->

<tripinfos xmlns:xsi="http://www.w3.org/2001/XMLSchema-instance" xsi:noNamespaceSchemaLocation="http://sumo.dlr.de/xsd/tripinfo_file.xsd">
    <tripinfo id="ourVehicle3" depart="15.00" departLane=":2959830775_2_0" departPos="0.00" departSpeed="15.00" departDelay="0.00" arrival="16.00" arrivalLane=":2959830775_2_0" arrivalPos="4.67" arrivalSpeed="14.61" duration="1.00" routeLength="4.67" waitingTime="0.00" waitingCount="0" stopTime="0.00" timeLoss="0.03" rerouteNo="0" devices="tripinfo_ourVehicle3" vType="DEFAULT_VEHTYPE" speedFactor="4.11" vaporized=""/>
    <tripinfo id="ourVehicle4" depart="15.00" departLane=":2264199819_12_0" departPos="0.00" departSpeed="15.00" departDelay="0.00" arrival="17.00" arrivalLane="461526152#0_1" arrivalPos="3.52" arrivalSpeed="16.62" duration="2.00" routeLength="15.17" waitingTime="0.00" waitingCount="0" stopTime="0.00" timeLoss="0.65" rerouteNo="0" devices="tripinfo_ourVehicle4" vType="DEFAULT_VEHTYPE" speedFactor="1.68" vaporized=""/>
    <tripinfo id="ourVehicle7" depart="16.00" departLane=":25664649_7_0" departPos="0.00" departSpeed="15.00" departDelay="1.00" arrival="17.00" arrivalLane=":25664649_7_0" arrivalPos="3.46" arrivalSpeed="13.84" duration="1.00" routeLength="3.46" waitingTime="0.00" waitingCount="0" stopTime="0.00" timeLoss="0.08" rerouteNo="0" devices="tripinfo_ourVehicle7" vType="DEFAULT_VEHTYPE" speedFactor="3.00" vaporized=""/>
    <tripinfo id="ourVehicle46" depart="16.00" departLane=":25662562_11_0" departPos="0.00" departSpeed="15.00" departDelay="1.00" arrival="17.00" arrivalLane=":25662562_11_0" arrivalPos="3.23" arrivalSpeed="13.94" duration="1.00" routeLength="3.23" waitingTime="0.00" waitingCount="0" stopTime="0.00" timeLoss="0.07" rerouteNo="0" devices="tripinfo_ourVehicle46" vType="DEFAULT_VEHTYPE" speedFactor="4.11" vaporized=""/>
    <tripinfo id="ourVehicle1" depart="15.00" departLane=":25664649_5_0" departPos="0.00" departSpeed="15.00" departDelay="0.00" arrival="18.00" arrivalLane="1447972531#0_0" arrivalPos="2.32" arrivalSpeed="8.90" duration="3.00" routeLength="27.86" waitingTime="0.00" waitingCount="0" stopTime="0.00" timeLoss="0.63" rerouteNo="0" devices="tripinfo_ourVehicle1" vType="DEFAULT_VEHTYPE" speedFactor="1.80" vaporized=""/>
    <tripinfo id="ourVehicle80" depart="17.00" departLane=":25664649_5_0" departPos="0.00" departSpeed="0.00" departDelay="1.00" arrival="23.00" arrivalLane="-1447972531#0_0" arrivalPos="2.29" arrivalSpeed="4.24" duration="6.00" routeLength="16.78" waitingTime="1.00" waitingCount="1" stopTime="0.00" timeLoss="4.82" rerouteNo="0" devices="tripinfo_ourVehicle80" vType="DEFAULT_VEHTYPE" speedFactor="1.80" vaporized=""/>
    <tripinfo id="ourVehicle28" depart="21.00" departLane=":2264199819_7_0" departPos="0.00" departSpeed="15.00" departDelay="6.00" arrival="24.00" arrivalLane="-1448681854#1_0" arrivalPos="11.50" arrivalSpeed="14.41" duration="3.00" routeLength="29.18" waitingTime="0.00" waitingCount="0" stopTime="0.00" timeLoss="0.12" rerouteNo="0" devices="tripinfo_ourVehicle28" vType="DEFAULT_VEHTYPE" speedFactor="1.08" vaporized=""/>
    <tripinfo id="ourVehicle5" depart="15.00" departLane=":cluster_21487242_6583929460_6583929466_6_0" departPos="0.00" departSpeed="15.00" departDelay="0.00" arrival="26.00" arrivalLane="1119936840#0_1" arrivalPos="5.49" arrivalSpeed="23.53" duration="11.00" routeLength="224.99" waitingTime="0.00" waitingCount="0" stopTime="0.00" timeLoss="1.28" rerouteNo="0" devices="tripinfo_ourVehicle5" vType="DEFAULT_VEHTYPE" speedFactor="1.75" vaporized=""/>
    <tripinfo id="ourVehicle75" depart="18.00" departLane="1119935543#0_0" departPos="0.00" departSpeed="15.00" departDelay="2.00" arrival="29.00" arrivalLane="1119936840#0_0" arrivalPos="5.49" arrivalSpeed="13.49" duration="11.00" routeLength="98.39" waitingTime="0.00" waitingCount="0" stopTime="0.00" timeLoss="4.19" rerouteNo="0" devices="tripinfo_ourVehicle75" vType="DEFAULT_VEHTYPE" speedFactor="1.13" vaporized=""/>
    <tripinfo id="ourVehicle26" depart="29.00" departLane=":3343070508_0_0" departPos="0.00" departSpeed="15.00" departDelay="14.00" arrival="30.00" arrivalLane=":3343070508_0_0" arrivalPos="4.67" arrivalSpeed="14.04" duration="1.00" routeLength="4.67" waitingTime="0.00" waitingCount="0" stopTime="0.00" timeLoss="0.06" rerouteNo="0" devices="tripinfo_ourVehicle26" vType="DEFAULT_VEHTYPE" speedFactor="4.11" vaporized=""/>
    <tripinfo id="ourVehicle14" depart="15.00" departLane="342968607#0_0" departPos="0.00" departSpeed="15.00" departDelay="0.00" arrival="31.00" arrivalLane="-1448681854#1_0" arrivalPos="11.50" arrivalSpeed="8.78" duration="16.00" routeLength="209.08" waitingTime="0.00" waitingCount="0" stopTime="0.00" timeLoss="2.07" rerouteNo="0" devices="tripinfo_ourVehicle14" vType="DEFAULT_VEHTYPE" speedFactor="1.13" vaporized=""/>
    <tripinfo id="ourVehicle57" depart="24.00" departLane=":25662562_3_0" departPos="0.00" departSpeed="4.73" departDelay="9.00" arrival="31.00" arrivalLane="155186522_1" arrivalPos="18.02" arrivalSpeed="9.08" duration="7.00" routeLength="32.69" waitingTime="0.00" waitingCount="0" stopTime="0.00" timeLoss="5.05" rerouteNo="0" devices="tripinfo_ourVehicle57" vType="DEFAULT_VEHTYPE" speedFactor="1.86" vaporized=""/>
    <tripinfo id="ourVehicle0" depart="15.00" departLane=":25662562_8_0" departPos="0.00" departSpeed="15.00" departDelay="0.00" arrival="33.00" arrivalLane="461526153#0_0" arrivalPos="15.49" arrivalSpeed="12.84" duration="18.00" routeLength="266.41" waitingTime="0.00" waitingCount="0" stopTime="0.00" timeLoss="2.59" rerouteNo="0" devices="tripinfo_ourVehicle0" vType="DEFAULT_VEHTYPE" speedFactor="1.35" vaporized=""/>
    <tripinfo id="ourVehicle65" depart="36.00" departLane=":13285252552_0_0" departPos="0.00" departSpeed="15.00" departDelay="21.00" arrival="37.00" arrivalLane="1447972531#0_0" arrivalPos="2.32" arrivalSpeed="14.84" duration="1.00" routeLength="11.08" waitingTime="0.00" waitingCount="0" stopTime="0.00" timeLoss="0.41" rerouteNo="0" devices="tripinfo_ourVehicle65" vType="DEFAULT_VEHTYPE" speedFactor="3.00" vaporized=""/>
    <tripinfo id="ourVehicle72" depart="16.00" departLane=":cluster_21487242_6583929460_6583929466_8_0" departPos="0.00" departSpeed="15.00" departDelay="0.00" arrival="42.00" arrivalLane="1447972531#0_0" arrivalPos="2.32" arrivalSpeed="10.09" duration="26.00" routeLength="118.18" waitingTime="11.00" waitingCount="1" stopTime="0.00" timeLoss="20.76" rerouteNo="0" devices="tripinfo_ourVehicle72" vType="DEFAULT_VEHTYPE" speedFactor="3.00" vaporized=""/>
    <tripinfo id="ourVehicle11" depart="21.00" departLane="155186522_0" departPos="0.00" departSpeed="15.00" departDelay="6.00" arrival="43.00" arrivalLane="461526153#0_0" arrivalPos="15.49" arrivalSpeed="12.36" duration="22.00" routeLength="248.49" waitingTime="0.00" waitingCount="0" stopTime="0.00" timeLoss="3.61" rerouteNo="0" devices="tripinfo_ourVehicle11" vType="DEFAULT_VEHTYPE" speedFactor="1.08" vaporized=""/>
    <tripinfo id="ourVehicle45" depart="17.00" departLane="461526153#0_0" departPos="0.00" departSpeed="15.00" departDelay="2.00" arrival="45.00" arrivalLane="1447972531#0_0" arrivalPos="2.32" arrivalSpeed="5.05" duration="28.00" routeLength="142.76" waitingTime="6.00" waitingCount="1" stopTime="0.00" timeLoss="12.05" rerouteNo="0" devices="tripinfo_ourVehicle45" vType="DEFAULT_VEHTYPE" speedFactor="1.08" vaporized=""/>
    <tripinfo id="ourVehicle58" depart="25.00" departLane=":2959830775_1_0" departPos="0.00" departSpeed="0.00" departDelay="10.00" arrival="55.00" arrivalLane="342968607#0_0" arrivalPos="124.78" arrivalSpeed="24.77" duration="30.00" routeLength="343.37" waitingTime="2.00" waitingCount="1" stopTime="0.00" timeLoss="10.66" rerouteNo="0" devices="tripinfo_ourVehicle58" vType="DEFAULT_VEHTYPE" speedFactor="1.80" vaporized=""/>
    <tripinfo id="ourVehicle27" depart="15.00" departLane=":2959830775_3_0" departPos="0.00" departSpeed="0.00" departDelay="0.00" arrival="56.00" arrivalLane="292429062_0" arrivalPos="27.96" arrivalSpeed="14.13" duration="41.00" routeLength="225.20" waitingTime="6.00" waitingCount="2" stopTime="0.00" timeLoss="24.90" rerouteNo="0" devices="tripinfo_ourVehicle27" vType="DEFAULT_VEHTYPE" speedFactor="1.80" vaporized=""/>
    <tripinfo id="ourVehicle92" depart="20.00" departLane=":10189040387_0_0" departPos="0.00" departSpeed="15.00" departDelay="4.00" arrival="59.00" arrivalLane="292429062_0" arrivalPos="27.96" arrivalSpeed="8.74" duration="39.00" routeLength="216.38" waitingTime="4.00" waitingCount="1" stopTime="0.00" timeLoss="17.82" rerouteNo="0" devices="tripinfo_ourVehicle92" vType="DEFAULT_VEHTYPE" speedFactor="1.09" vaporized=""/>
    <tripinfo id="ourVehicle49" depart="19.00" departLane=":25664649_10_0" departPos="0.00" departSpeed="0.00" departDelay="4.00" arrival="60.00" arrivalLane="-111833185_0" arrivalPos="151.83" arrivalSpeed="4.49" duration="41.00" routeLength="192.24" waitingTime="12.00" waitingCount="3" stopTime="0.00" timeLoss="27.67" rerouteNo="0" devices="tripinfo_ourVehicle49" vType="DEFAULT_VEHTYPE" speedFactor="1.80" vaporized=""/>
    <tripinfo id="ourVehicle35" depart="22.00" departLane=":2959830775_3_0" departPos="0.00" departSpeed="3.23" departDelay="7.00" arrival="62.00" arrivalLane="292429062_0" arrivalPos="27.96" arrivalSpeed="13.66" duration="40.00" routeLength="225.20" waitingTime="1.00" waitingCount="1" stopTime="0.00" timeLoss="24.59" rerouteNo="0" devices="tripinfo_ourVehicle35" vType="DEFAULT_VEHTYPE" speedFactor="1.80" vaporized=""/>
    <tripinfo id="ourVehicle13" depart="19.00" departLane=":25662562_6_0" departPos="0.00" departSpeed="0.00" departDelay="4.00" arrival="64.00" arrivalLane="-153698380#2_0" arrivalPos="86.38" arrivalSpeed="21.54" duration="45.00" routeLength="240.49" waitingTime="7.00" waitingCount="2" stopTime="0.00" timeLoss="37.41" rerouteNo="0" devices="tripinfo_ourVehicle13" vType="DEFAULT_VEHTYPE" speedFactor="4.11" vaporized=""/>
    <tripinfo id="ourVehicle71" depart="38.00" departLane="-155186522_0" departPos="0.00" departSpeed="15.00" departDelay="22.00" arrival="66.00" arrivalLane="292429062_0" arrivalPos="27.96" arrivalSpeed="8.47" duration="28.00" routeLength="160.31" waitingTime="1.00" waitingCount="1" stopTime="0.00" timeLoss="11.12" rerouteNo="0" devices="tripinfo_ourVehicle71" vType="DEFAULT_VEHTYPE" speedFactor="1.12" vaporized=""/>
    <tripinfo id="ourVehicle36" depart="22.00" departLane="155186522_0" departPos="0.00" departSpeed="15.00" departDelay="7.00" arrival="67.00" arrivalLane="1447972531#0_0" arrivalPos="2.32" arrivalSpeed="5.91" duration="45.00" routeLength="380.64" waitingTime="0.00" waitingCount="0" stopTime="0.00" timeLoss="11.62" rerouteNo="0" devices="tripinfo_ourVehicle36" vType="DEFAULT_VEHTYPE" speedFactor="1.08" vaporized=""/>
    <tripinfo id="ourVehicle2" depart="17.00" departLane="155186522_0" departPos="0.00" departSpeed="15.00" departDelay="2.00" arrival="68.00" arrivalLane="4412868_0" arrivalPos="1.84" arrivalSpeed="6.30" duration="51.00" routeLength="371.42" waitingTime="6.00" waitingCount="2" stopTime="0.00" timeLoss="18.53" rerouteNo="0" devices="tripinfo_ourVehicle2" vType="DEFAULT_VEHTYPE" speedFactor="1.08" vaporized=""/>
    <tripinfo id="ourVehicle6" depart="28.00" departLane=":3343070508_0_0" departPos="0.00" departSpeed="15.00" departDelay="13.00" arrival="68.00" arrivalLane="-461526153#1_0" arrivalPos="15.48" arrivalSpeed="5.45" duration="40.00" routeLength="419.59" waitingTime="7.00" waitingCount="1" stopTime="0.00" timeLoss="30.54" rerouteNo="0" devices="tripinfo_ourVehicle6" vType="DEFAULT_VEHTYPE" speedFactor="4.11" vaporized=""/>
    <tripinfo id="ourVehicle23" depart="15.00" departLane="111833185_0" departPos="0.00" departSpeed="15.00" departDelay="0.00" arrival="68.00" arrivalLane="-1447972531#0_0" arrivalPos="2.29" arrivalSpeed="8.88" duration="53.00" routeLength="170.92" waitingTime="27.00" waitingCount="2" stopTime="0.00" timeLoss="41.30" rerouteNo="0" devices="tripinfo_ourVehicle23" vType="DEFAULT_VEHTYPE" speedFactor="1.80" vaporized=""/>
    <tripinfo id="ourVehicle29" depart="18.00" departLane=":25662562_3_0" departPos="0.00" departSpeed="1.25" departDelay="3.00" arrival="69.00" arrivalLane="-4412868_0" arrivalPos="1.83" arrivalSpeed="6.83" duration="51.00" routeLength="374.70" waitingTime="2.00" waitingCount="1" stopTime="0.00" timeLoss="32.22" rerouteNo="0" devices="tripinfo_ourVehicle29" vType="DEFAULT_VEHTYPE" speedFactor="1.86" vaporized=""/>
    <tripinfo id="ourVehicle18" depart="16.00" departLane=":2959830775_2_0" departPos="0.00" departSpeed="0.00" departDelay="1.00" arrival="70.00" arrivalLane="169999355#0_0" arrivalPos="85.01" arrivalSpeed="6.22" duration="54.00" routeLength="456.87" waitingTime="5.00" waitingCount="2" stopTime="0.00" timeLoss="43.35" rerouteNo="0" devices="tripinfo_ourVehicle18" vType="DEFAULT_VEHTYPE" speedFactor="4.11" vaporized=""/>
    <tripinfo id="ourVehicle94" depart="68.00" departLane="-461526153#1_0" departPos="0.00" departSpeed="14.04" departDelay="52.00" arrival="72.00" arrivalLane="-1448681854#1_0" arrivalPos="11.50" arrivalSpeed="14.21" duration="4.00" routeLength="44.66" waitingTime="0.00" waitingCount="0" stopTime="0.00" timeLoss="0.35" rerouteNo="0" devices="tripinfo_ourVehicle94" vType="DEFAULT_VEHTYPE" speedFactor="1.10" vaporized=""/>
    <tripinfo id="ourVehicle37" depart="15.00" departLane="690322561_0" departPos="0.00" departSpeed="15.00" departDelay="0.00" arrival="73.00" arrivalLane="-4412868_0" arrivalPos="1.83" arrivalSpeed="7.37" duration="58.00" routeLength="212.40" waitingTime="26.00" waitingCount="2" stopTime="0.00" timeLoss="43.74" rerouteNo="0" devices="tripinfo_ourVehicle37" vType="DEFAULT_VEHTYPE" speedFactor="1.80" vaporized=""/>
    <tripinfo id="ourVehicle60" depart="16.00" departLane=":25664649_8_0" departPos="0.00" departSpeed="0.00" departDelay="1.00" arrival="74.00" arrivalLane="-461526153#1_0" arrivalPos="15.48" arrivalSpeed="11.18" duration="58.00" routeLength="125.13" waitingTime="39.00" waitingCount="2" stopTime="0.00" timeLoss="51.48" rerouteNo="0" devices="tripinfo_ourVehicle60" vType="DEFAULT_VEHTYPE" speedFactor="2.19" vaporized=""/>
    <tripinfo id="ourVehicle95" depart="18.00" departLane=":2264199819_1_0" departPos="0.00" departSpeed="15.00" departDelay="2.00" arrival="74.00" arrivalLane="194069450_1" arrivalPos="11.58" arrivalSpeed="6.59" duration="56.00" routeLength="102.86" waitingTime="36.00" waitingCount="1" stopTime="0.00" timeLoss="47.86" rerouteNo="0" devices="tripinfo_ourVehicle95" vType="DEFAULT_VEHTYPE" speedFactor="1.08" vaporized=""/>
    <tripinfo id="ourVehicle69" depart="64.00" departLane=":2959830775_2_0" departPos="0.00" departSpeed="15.00" departDelay="48.00" arrival="77.00" arrivalLane="690322561_0" arrivalPos="35.18" arrivalSpeed="27.29" duration="13.00" routeLength="225.40" waitingTime="0.00" waitingCount="0" stopTime="0.00" timeLoss="5.72" rerouteNo="0" devices="tripinfo_ourVehicle69" vType="DEFAULT_VEHTYPE" speedFactor="4.11" vaporized=""/>
    <tripinfo id="ourVehicle34" depart="30.00" departLane=":3343070508_0_0" departPos="0.00" departSpeed="15.00" departDelay="15.00" arrival="80.00" arrivalLane="169999355#0_0" arrivalPos="85.01" arrivalSpeed="6.96" duration="50.00" routeLength="494.76" waitingTime="3.00" waitingCount="2" stopTime="0.00" timeLoss="37.93" rerouteNo="0" devices="tripinfo_ourVehicle34" vType="DEFAULT_VEHTYPE" speedFactor="4.11" vaporized=""/>
    <tripinfo id="ourVehicle56" depart="16.00" departLane=":25664649_13_0" departPos="0.00" departSpeed="15.00" departDelay="1.00" arrival="82.00" arrivalLane="461526153#0_0" arrivalPos="15.49" arrivalSpeed="8.86" duration="66.00" routeLength="208.02" waitingTime="41.00" waitingCount="1" stopTime="0.00" timeLoss="54.09" rerouteNo="0" devices="tripinfo_ourVehicle56" vType="DEFAULT_VEHTYPE" speedFactor="1.80" vaporized=""/>
    <tripinfo id="ourVehicle67" depart="18.00" departLane=":25664649_13_0" departPos="0.00" departSpeed="0.00" departDelay="2.00" arrival="86.00" arrivalLane="155186522_1" arrivalPos="18.02" arrivalSpeed="15.85" duration="68.00" routeLength="329.55" waitingTime="37.00" waitingCount="2" stopTime="0.00" timeLoss="51.35" rerouteNo="0" devices="tripinfo_ourVehicle67" vType="DEFAULT_VEHTYPE" speedFactor="1.80" vaporized=""/>
    <tripinfo id="ourVehicle62" depart="30.00" departLane="1447972531#1_0" departPos="0.00" departSpeed="15.00" departDelay="15.00" arrival="88.00" arrivalLane="1447972531#1_0" arrivalPos="85.06" arrivalSpeed="5.67" duration="58.00" routeLength="85.06" waitingTime="35.00" waitingCount="2" stopTime="0.00" timeLoss="52.20" rerouteNo="0" devices="tripinfo_ourVehicle62" vType="DEFAULT_VEHTYPE" speedFactor="1.80" vaporized=""/>
    <tripinfo id="ourVehicle43" depart="15.00" departLane="1447972531#1_0" departPos="0.00" departSpeed="15.00" departDelay="0.00" arrival="89.00" arrivalLane="169999355#0_0" arrivalPos="85.01" arrivalSpeed="3.95" duration="74.00" routeLength="178.83" waitingTime="42.00" waitingCount="2" stopTime="0.00" timeLoss="61.56" rerouteNo="0" devices="tripinfo_ourVehicle43" vType="DEFAULT_VEHTYPE" speedFactor="1.80" vaporized=""/>
    <tripinfo id="ourVehicle17" depart="15.00" departLane=":2264199819_7_0" departPos="0.00" departSpeed="0.00" departDelay="0.00" arrival="91.00" arrivalLane="1119936840#0_1" arrivalPos="5.49" arrivalSpeed="15.86" duration="76.00" routeLength="307.65" waitingTime="41.00" waitingCount="3" stopTime="0.00" timeLoss="55.64" rerouteNo="0" devices="tripinfo_ourVehicle17" vType="DEFAULT_VEHTYPE" speedFactor="1.17" vaporized=""/>
    <tripinfo id="veh0" depart="0.00" departLane="188386313#0_0" departPos="5.10" departSpeed="0.00" departDelay="0.00" arrival="93.00" arrivalLane="-1448681854#1_0" arrivalPos="11.50" arrivalSpeed="8.92" duration="93.00" routeLength="631.56" waitingTime="20.00" waitingCount="2" stopTime="0.00" timeLoss="39.47" rerouteNo="1" devices="tripinfo_veh0 routing_veh0" vType="veh_passenger" speedFactor="1.06" vaporized=""/>
    <tripinfo id="ourVehicle96" depart="17.00" departLane=":25662562_4_0" departPos="0.00" departSpeed="5.98" departDelay="1.00" arrival="93.00" arrivalLane="461526153#0_0" arrivalPos="15.49" arrivalSpeed="10.73" duration="76.00" routeLength="461.50" waitingTime="19.00" waitingCount="2" stopTime="0.00" timeLoss="42.78" rerouteNo="0" devices="tripinfo_ourVehicle96" vType="DEFAULT_VEHTYPE" speedFactor="1.35" vaporized=""/>
    <tripinfo id="ourVehicle39" depart="15.00" departLane=":25664649_0_0" departPos="0.00" departSpeed="0.00" departDelay="0.00" arrival="95.00" arrivalLane="169999355#0_0" arrivalPos="85.01" arrivalSpeed="9.58" duration="80.00" routeLength="216.85" waitingTime="40.00" waitingCount="3" stopTime="0.00" timeLoss="67.12" rerouteNo="0" devices="tripinfo_ourVehicle39" vType="DEFAULT_VEHTYPE" speedFactor="2.19" vaporized=""/>
    <tripinfo id="ourVehicle53" depart="28.00" departLane="1447972531#1_0" departPos="0.00" departSpeed="15.00" departDelay="13.00" arrival="105.00" arrivalLane="-1448681854#1_0" arrivalPos="11.50" arrivalSpeed="11.41" duration="77.00" routeLength="144.12" waitingTime="46.00" waitingCount="3" stopTime="0.00" timeLoss="68.49" rerouteNo="0" devices="tripinfo_ourVehicle53" vType="DEFAULT_VEHTYPE" speedFactor="1.80" vaporized=""/>
    <tripinfo id="ourVehicle8" depart="43.00" departLane=":25664649_17_0" departPos="0.00" departSpeed="0.00" departDelay="28.00" arrival="106.00" arrivalLane="153698380#0_0" arrivalPos="85.99" arrivalSpeed="24.12" duration="63.00" routeLength="385.66" waitingTime="23.00" waitingCount="3" stopTime="0.00" timeLoss="49.60" rerouteNo="0" devices="tripinfo_ourVehicle8" vType="DEFAULT_VEHTYPE" speedFactor="3.00" vaporized=""/>
    <tripinfo id="ourVehicle61" depart="24.00" departLane=":2959830775_4_0" departPos="0.00" departSpeed="0.00" departDelay="9.00" arrival="108.00" arrivalLane="-1447972531#0_0" arrivalPos="2.29" arrivalSpeed="10.39" duration="84.00" routeLength="220.73" waitingTime="39.00" waitingCount="4" stopTime="0.00" timeLoss="71.09" rerouteNo="0" devices="tripinfo_ourVehicle61" vType="DEFAULT_VEHTYPE" speedFactor="2.09" vaporized=""/>
    <tripinfo id="ourVehicle79" depart="45.00" departLane=":25664649_13_0" departPos="0.00" departSpeed="0.00" departDelay="29.00" arrival="109.00" arrivalLane="169999355#0_0" arrivalPos="85.01" arrivalSpeed="14.93" duration="64.00" routeLength="193.29" waitingTime="22.00" waitingCount="4" stopTime="0.00" timeLoss="50.08" rerouteNo="0" devices="tripinfo_ourVehicle79" vType="DEFAULT_VEHTYPE" speedFactor="1.80" vaporized=""/>
    <tripinfo id="ourVehicle93" depart="30.00" departLane=":25662562_3_0" departPos="0.00" departSpeed="0.00" departDelay="14.00" arrival="110.00" arrivalLane="1447972531#1_0" arrivalPos="85.06" arrivalSpeed="9.52" duration="80.00" routeLength="489.95" waitingTime="8.00" waitingCount="5" stopTime="0.00" timeLoss="53.22" rerouteNo="0" devices="tripinfo_ourVehicle93" vType="DEFAULT_VEHTYPE" speedFactor="1.86" vaporized=""/>
    <tripinfo id="ourVehicle51" depart="20.00" departLane="111833185_0" departPos="0.00" departSpeed="15.00" departDelay="5.00" arrival="112.00" arrivalLane="1447972531#1_0" arrivalPos="85.06" arrivalSpeed="11.89" duration="92.00" routeLength="247.08" waitingTime="38.00" waitingCount="4" stopTime="0.00" timeLoss="74.92" rerouteNo="0" devices="tripinfo_ourVehicle51" vType="DEFAULT_VEHTYPE" speedFactor="1.80" vaporized=""/>
    <tripinfo id="ourVehicle47" depart="33.00" departLane=":2959830775_3_0" departPos="0.00" departSpeed="15.00" departDelay="18.00" arrival="114.00" arrivalLane="1447972531#1_0" arrivalPos="85.06" arrivalSpeed="12.06" duration="81.00" routeLength="589.51" waitingTime="3.00" waitingCount="2" stopTime="0.00" timeLoss="47.24" rerouteNo="0" devices="tripinfo_ourVehicle47" vType="DEFAULT_VEHTYPE" speedFactor="1.80" vaporized=""/>
    <tripinfo id="ourVehicle25" depart="69.00" departLane="194069450_0" departPos="0.00" departSpeed="15.00" departDelay="54.00" arrival="116.00" arrivalLane="1447972531#1_0" arrivalPos="85.06" arrivalSpeed="7.99" duration="47.00" routeLength="271.56" waitingTime="1.00" waitingCount="1" stopTime="0.00" timeLoss="18.76" rerouteNo="0" devices="tripinfo_ourVehicle25" vType="DEFAULT_VEHTYPE" speedFactor="1.08" vaporized=""/>
    <tripinfo id="ourVehicle42" depart="41.00" departLane=":25664649_4_0" departPos="0.00" departSpeed="3.54" departDelay="26.00" arrival="118.00" arrivalLane="1119935543#0_0" arrivalPos="71.98" arrivalSpeed="28.51" duration="77.00" routeLength="317.87" waitingTime="18.00" waitingCount="5" stopTime="0.00" timeLoss="61.63" rerouteNo="0" devices="tripinfo_ourVehicle42" vType="DEFAULT_VEHTYPE" speedFactor="2.08" vaporized=""/>
    <tripinfo id="ourVehicle59" depart="72.00" departLane="194069450_0" departPos="0.00" departSpeed="15.00" departDelay="57.00" arrival="120.00" arrivalLane="-111833185_0" arrivalPos="151.83" arrivalSpeed="9.11" duration="48.00" routeLength="312.79" waitingTime="3.00" waitingCount="1" stopTime="0.00" timeLoss="15.20" rerouteNo="0" devices="tripinfo_ourVehicle59" vType="DEFAULT_VEHTYPE" speedFactor="1.10" vaporized=""/>
    <tripinfo id="ourVehicle74" depart="16.00" departLane=":10189040387_0_0" departPos="0.00" departSpeed="15.00" departDelay="0.00" arrival="122.00" arrivalLane="111833185_0" arrivalPos="151.83" arrivalSpeed="7.63" duration="106.00" routeLength="377.19" waitingTime="25.00" waitingCount="4" stopTime="0.00" timeLoss="69.35" rerouteNo="0" devices="tripinfo_ourVehicle74" vType="DEFAULT_VEHTYPE" speedFactor="1.16" vaporized=""/>
    <tripinfo id="ourVehicle90" depart="112.00" departLane=":cluster_21487242_6583929460_6583929466_4_0" departPos="0.00" departSpeed="15.00" departDelay="96.00" arrival="122.00" arrivalLane="194069450_1" arrivalPos="11.58" arrivalSpeed="8.89" duration="10.00" routeLength="75.31" waitingTime="0.00" waitingCount="0" stopTime="0.00" timeLoss="4.92" rerouteNo="0" devices="tripinfo_ourVehicle90" vType="DEFAULT_VEHTYPE" speedFactor="1.35" vaporized=""/>
    <tripinfo id="ourVehicle21" depart="18.00" departLane=":25662562_0_0" departPos="0.00" departSpeed="0.00" departDelay="3.00" arrival="123.00" arrivalLane="-4412868_0" arrivalPos="1.83" arrivalSpeed="10.49" duration="105.00" routeLength="318.87" waitingTime="29.00" waitingCount="5" stopTime="0.00" timeLoss="85.28" rerouteNo="0" devices="tripinfo_ourVehicle21" vType="DEFAULT_VEHTYPE" speedFactor="2.01" vaporized=""/>
    <tripinfo id="ourVehicle44" depart="31.00" departLane=":25664649_3_0" departPos="0.00" departSpeed="0.00" departDelay="16.00" arrival="126.00" arrivalLane="-153698380#2_0" arrivalPos="86.38" arrivalSpeed="21.86" duration="95.00" routeLength="501.25" waitingTime="32.00" waitingCount="6" stopTime="0.00" timeLoss="81.46" rerouteNo="0" devices="tripinfo_ourVehicle44" vType="DEFAULT_VEHTYPE" speedFactor="4.11" vaporized=""/>
    <tripinfo id="ourVehicle98" depart="22.00" departLane=":6476525719_1_0" departPos="0.00" departSpeed="15.00" departDelay="6.00" arrival="126.00" arrivalLane="194069450_1" arrivalPos="11.58" arrivalSpeed="9.85" duration="104.00" routeLength="325.91" waitingTime="44.00" waitingCount="4" stopTime="0.00" timeLoss="83.25" rerouteNo="0" devices="tripinfo_ourVehicle98" vType="DEFAULT_VEHTYPE" speedFactor="1.80" vaporized=""/>
    <tripinfo id="ourVehicle19" depart="26.00" departLane=":25664649_1_0" departPos="0.00" departSpeed="0.00" departDelay="11.00" arrival="127.00" arrivalLane="1447972531#1_0" arrivalPos="85.06" arrivalSpeed="13.70" duration="101.00" routeLength="423.62" waitingTime="27.00" waitingCount="4" stopTime="0.00" timeLoss="71.21" rerouteNo="0" devices="tripinfo_ourVehicle19" vType="DEFAULT_VEHTYPE" speedFactor="1.80" vaporized=""/>
    <tripinfo id="ourVehicle55" depart="59.00" departLane="-1447972531#0_0" departPos="0.00" departSpeed="15.00" departDelay="44.00" arrival="127.00" arrivalLane="342968607#0_1" arrivalPos="124.78" arrivalSpeed="24.04" duration="68.00" routeLength="478.30" waitingTime="13.00" waitingCount="3" stopTime="0.00" timeLoss="43.25" rerouteNo="0" devices="tripinfo_ourVehicle55" vType="DEFAULT_VEHTYPE" speedFactor="1.80" vaporized=""/>
</tripinfos>
