<?xml version="1.0" encoding="UTF-8"?>

<!-- generated on 2026-01-20 22:49:59 by Eclipse SUMO sumo Version 1.24.0
<sumoConfiguration xmlns:xsi="http://www.w3.org/2001/XMLSchema-instance" xsi:noNamespaceSchemaLocation="http://sumo.dlr.de/xsd/sumoConfiguration.xsd">

    <input>
        <net-file value="SumoConfig/Easy_Cross/cross.net.xml"/>
        <route-files value="SumoConfig/Easy_Cross/cross.rou.xml"/>
        <additional-files value="SumoConfig/Easy_Cross/cross.det.xml"/>
    </input>

    <time>
        <begin value="0"/>
    </time>

    <report>
        <verbose value="true"/>
        <no-step-log value="true"/>
    </report>

    <traci_server>
        <remote-port value="52182"/>
    </traci_server>

    <gui_only>
        <start value="true"/>
    </gui_only>

</sumoConfiguration>
-->

<detector xmlns:xsi="http://www.w3.org/2001/XMLSchema-instance" xsi:noNamespaceSchemaLocation="http://sumo.dlr.de/xsd/det_e1_file.xsd">
    <interval begin="0.00" end="30.00" id="0" nVehContrib="1" flow="120.00" occupancy="0.83" speed="20.04" harmonicMeanSpeed="20.04" length="5.00" nVehEntered="1"/>
    <interval begin="30.00" end="60.00" id="0" nVehContrib="4" flow="480.00" occupancy="4.13" speed="16.43" harmonicMeanSpeed="16.14" length="5.00" nVehEntered="4"/>
</detector>
