<?xml version="1.0" encoding="UTF-8"?>

<!-- generated on 2026-01-20T23:04:10.692691+01:00 by Eclipse SUMO sumo 1.25.0
<sumoConfiguration xmlns:xsi="http://www.w3.org/2001/XMLSchema-instance" xsi:noNamespaceSchemaLocation="http://sumo.dlr.de/xsd/sumoConfiguration.xsd">

    <input>
        <net-file value="SumoConfig/classicsim/osm.net.xml.gz"/>
        <route-files value="SumoConfig/classicsim/osm.passenger.trips.xml"/>
        <additional-files value="SumoConfig/classicsim/osm.poly.xml.gz,SumoConfig/classicsim/output.add.xml"/>
    </input>

    <output>
        <tripinfo-output value="SumoConfig/classicsim/tripinfos.xml"/>
        <statistic-output value="SumoConfig/classicsim/stats.xml"/>
    </output>

    <processing>
        <ignore-route-errors value="true"/>
        <tls.actuated.jam-threshold value="30"/>
    </processing>

    <routing>
        <device.rerouting.adaptation-steps value="18"/>
        <device.rerouting.adaptation-interval value="10"/>
    </routing>

    <report>
        <verbose value="true"/>
        <duration-log.statistics value="true"/>
        <no-step-log value="true"/>
    </report>

    <traci_server>
        <remote-port value="36955"/>
    </traci_server>

    <gui_only>
        <gui-settings-file value="SumoConfig/classicsim/osm.view.xml"/>
        <start value="true"/>
    </gui_only>

</sumoConfiguration>
-->

<tripinfos xmlns:xsi="http://www.w3.org/2001/XMLSchema-instance" xsi:noNamespaceSchemaLocation="http://sumo.dlr.de/xsd/tripinfo_file.xsd">
    <tripinfo id="ourVehicle5" depart="35.00" departLane=":4611932501_4_0" departPos="0.00" departSpeed="15.00" departDelay="0.00" arrival="37.00" arrivalLane=":4611932501_4_0" arrivalPos="12.59" arrivalSpeed="14.22" duration="2.00" routeLength="12.59" waitingTime="0.00" waitingCount="0" stopTime="0.00" timeLoss="0.25" rerouteNo="0" devices="tripinfo_ourVehicle5" vType="DEFAULT_VEHTYPE" speedFactor="1.80" vaporized=""/>
    <tripinfo id="ourVehicle73" depart="37.00" departLane=":4611932501_8_0" departPos="0.00" departSpeed="15.00" departDelay="2.00" arrival="38.00" arrivalLane=":4611932501_8_0" arrivalPos="4.97" arrivalSpeed="14.19" duration="1.00" routeLength="4.97" waitingTime="0.00" waitingCount="0" stopTime="0.00" timeLoss="0.05" rerouteNo="0" devices="tripinfo_ourVehicle73" vType="DEFAULT_VEHTYPE" speedFactor="4.02" vaporized=""/>
    <tripinfo id="ourVehicle18" depart="45.00" departLane=":4611932501_3_0" departPos="0.00" departSpeed="15.00" departDelay="10.00" arrival="46.00" arrivalLane=":4611932501_3_0" arrivalPos="8.26" arrivalSpeed="14.98" duration="1.00" routeLength="8.26" waitingTime="0.00" waitingCount="0" stopTime="0.00" timeLoss="0.00" rerouteNo="0" devices="tripinfo_ourVehicle18" vType="DEFAULT_VEHTYPE" speedFactor="2.30" vaporized=""/>
    <tripinfo id="ourVehicle48" depart="35.00" departLane=":4611932501_6_0" departPos="0.00" departSpeed="15.00" departDelay="0.00" arrival="48.00" arrivalLane="-317948763_0" arrivalPos="75.38" arrivalSpeed="14.21" duration="13.00" routeLength="172.95" waitingTime="0.00" waitingCount="0" stopTime="0.00" timeLoss="0.99" rerouteNo="0" devices="tripinfo_ourVehicle48" vType="DEFAULT_VEHTYPE" speedFactor="1.80" vaporized=""/>
    <tripinfo id="ourVehicle47" depart="35.00" departLane=":254384051_0_0" departPos="0.00" departSpeed="15.00" departDelay="0.00" arrival="51.00" arrivalLane="-495683152_0" arrivalPos="33.44" arrivalSpeed="14.97" duration="16.00" routeLength="152.02" waitingTime="0.00" waitingCount="0" stopTime="0.00" timeLoss="8.06" rerouteNo="0" devices="tripinfo_ourVehicle47" vType="DEFAULT_VEHTYPE" speedFactor="2.47" vaporized=""/>
    <tripinfo id="ourVehicle66" depart="37.00" departLane=":254384052_0_0" departPos="0.00" departSpeed="15.00" departDelay="2.00" arrival="51.00" arrivalLane="23490810#1_0" arrivalPos="56.51" arrivalSpeed="17.79" duration="14.00" routeLength="151.01" waitingTime="0.00" waitingCount="0" stopTime="0.00" timeLoss="8.82" rerouteNo="0" devices="tripinfo_ourVehicle66" vType="DEFAULT_VEHTYPE" speedFactor="3.84" vaporized=""/>
    <tripinfo id="ourVehicle15" depart="35.00" departLane=":254384052_1_0" departPos="0.00" departSpeed="15.00" departDelay="0.00" arrival="56.00" arrivalLane="-495683152_0" arrivalPos="33.44" arrivalSpeed="14.64" duration="21.00" routeLength="234.89" waitingTime="0.00" waitingCount="0" stopTime="0.00" timeLoss="9.31" rerouteNo="0" devices="tripinfo_ourVehicle15" vType="DEFAULT_VEHTYPE" speedFactor="2.47" vaporized=""/>
    <tripinfo id="ourVehicle7" depart="37.00" departLane=":4611932501_3_0" departPos="0.00" departSpeed="15.00" departDelay="2.00" arrival="57.00" arrivalLane="495683152_0" arrivalPos="33.44" arrivalSpeed="4.12" duration="20.00" routeLength="159.21" waitingTime="1.00" waitingCount="1" stopTime="0.00" timeLoss="11.05" rerouteNo="0" devices="tripinfo_ourVehicle7" vType="DEFAULT_VEHTYPE" speedFactor="2.30" vaporized=""/>
    <tripinfo id="ourVehicle78" depart="41.00" departLane=":254384051_1_0" departPos="0.00" departSpeed="15.00" departDelay="6.00" arrival="58.00" arrivalLane="23490810#0_0" arrivalPos="79.41" arrivalSpeed="6.56" duration="17.00" routeLength="159.98" waitingTime="0.00" waitingCount="0" stopTime="0.00" timeLoss="11.65" rerouteNo="0" devices="tripinfo_ourVehicle78" vType="DEFAULT_VEHTYPE" speedFactor="3.85" vaporized=""/>
    <tripinfo id="ourVehicle65" depart="35.00" departLane="23490810#0_0" departPos="0.00" departSpeed="15.00" departDelay="0.00" arrival="60.00" arrivalLane="-317948763_0" arrivalPos="75.38" arrivalSpeed="7.94" duration="25.00" routeLength="246.08" waitingTime="0.00" waitingCount="0" stopTime="0.00" timeLoss="7.73" rerouteNo="0" devices="tripinfo_ourVehicle65" vType="DEFAULT_VEHTYPE" speedFactor="1.80" vaporized=""/>
    <tripinfo id="ourVehicle80" depart="53.00" departLane=":254384052_0_0" departPos="0.00" departSpeed="15.00" departDelay="18.00" arrival="62.00" arrivalLane="23490810#0_0" arrivalPos="79.41" arrivalSpeed="10.98" duration="9.00" routeLength="81.91" waitingTime="0.00" waitingCount="0" stopTime="0.00" timeLoss="6.28" rerouteNo="0" devices="tripinfo_ourVehicle80" vType="DEFAULT_VEHTYPE" speedFactor="3.84" vaporized=""/>
    <tripinfo id="ourVehicle45" depart="63.00" departLane=":4611932501_5_0" departPos="0.00" departSpeed="15.00" departDelay="28.00" arrival="64.00" arrivalLane=":4611932501_5_0" arrivalPos="4.67" arrivalSpeed="14.52" duration="1.00" routeLength="4.67" waitingTime="0.00" waitingCount="0" stopTime="0.00" timeLoss="0.03" rerouteNo="0" devices="tripinfo_ourVehicle45" vType="DEFAULT_VEHTYPE" speedFactor="4.11" vaporized=""/>
    <tripinfo id="ourVehicle26" depart="58.00" departLane=":4611932501_3_0" departPos="0.00" departSpeed="15.00" departDelay="23.00" arrival="67.00" arrivalLane="-495683152_0" arrivalPos="33.44" arrivalSpeed="15.98" duration="9.00" routeLength="121.10" waitingTime="0.00" waitingCount="0" stopTime="0.00" timeLoss="2.14" rerouteNo="0" devices="tripinfo_ourVehicle26" vType="DEFAULT_VEHTYPE" speedFactor="2.30" vaporized=""/>
    <tripinfo id="ourVehicle24" depart="62.00" departLane=":4611932501_5_0" departPos="0.00" departSpeed="15.00" departDelay="27.00" arrival="68.00" arrivalLane="-23490810#0_0" arrivalPos="79.13" arrivalSpeed="20.68" duration="6.00" routeLength="83.80" waitingTime="0.00" waitingCount="0" stopTime="0.00" timeLoss="3.14" rerouteNo="0" devices="tripinfo_ourVehicle24" vType="DEFAULT_VEHTYPE" speedFactor="4.11" vaporized=""/>
    <tripinfo id="ourVehicle31" depart="37.00" departLane="317948763_0" departPos="0.00" departSpeed="15.00" departDelay="2.00" arrival="73.00" arrivalLane="-23490810#1_0" arrivalPos="57.94" arrivalSpeed="9.96" duration="36.00" routeLength="289.00" waitingTime="0.00" waitingCount="0" stopTime="0.00" timeLoss="15.62" rerouteNo="0" devices="tripinfo_ourVehicle31" vType="DEFAULT_VEHTYPE" speedFactor="1.80" vaporized=""/>
    <tripinfo id="ourVehicle37" depart="67.00" departLane=":4611932501_4_0" departPos="0.00" departSpeed="15.00" departDelay="32.00" arrival="73.00" arrivalLane="23490810#1_0" arrivalPos="56.51" arrivalSpeed="9.86" duration="6.00" routeLength="69.10" waitingTime="0.00" waitingCount="0" stopTime="0.00" timeLoss="1.24" rerouteNo="0" devices="tripinfo_ourVehicle37" vType="DEFAULT_VEHTYPE" speedFactor="1.80" vaporized=""/>
    <tripinfo id="ourVehicle34" depart="39.00" departLane="317948763_0" departPos="0.00" departSpeed="15.00" departDelay="4.00" arrival="76.00" arrivalLane="-23490810#1_0" arrivalPos="57.94" arrivalSpeed="12.44" duration="37.00" routeLength="289.00" waitingTime="0.00" waitingCount="0" stopTime="0.00" timeLoss="16.52" rerouteNo="0" devices="tripinfo_ourVehicle34" vType="DEFAULT_VEHTYPE" speedFactor="1.80" vaporized=""/>
    <tripinfo id="ourVehicle10" depart="38.00" departLane=":4611932501_4_0" departPos="0.00" departSpeed="15.00" departDelay="3.00" arrival="77.00" arrivalLane="-23490810#0_0" arrivalPos="79.13" arrivalSpeed="13.99" duration="39.00" routeLength="221.79" waitingTime="13.00" waitingCount="1" stopTime="0.00" timeLoss="23.68" rerouteNo="0" devices="tripinfo_ourVehicle10" vType="DEFAULT_VEHTYPE" speedFactor="1.80" vaporized=""/>
    <tripinfo id="ourVehicle20" depart="72.00" departLane=":4611932501_7_0" departPos="0.00" departSpeed="15.00" departDelay="37.00" arrival="78.00" arrivalLane="5218604_0" arrivalPos="64.89" arrivalSpeed="15.94" duration="6.00" routeLength="77.77" waitingTime="0.00" waitingCount="0" stopTime="0.00" timeLoss="0.28" rerouteNo="0" devices="tripinfo_ourVehicle20" vType="DEFAULT_VEHTYPE" speedFactor="1.94" vaporized=""/>
    <tripinfo id="ourVehicle12" depart="43.00" departLane=":254384053_7_0" departPos="0.00" departSpeed="15.00" departDelay="8.00" arrival="79.00" arrivalLane="23490810#0_0" arrivalPos="79.41" arrivalSpeed="4.66" duration="36.00" routeLength="269.81" waitingTime="0.00" waitingCount="0" stopTime="0.00" timeLoss="17.38" rerouteNo="0" devices="tripinfo_ourVehicle12" vType="DEFAULT_VEHTYPE" speedFactor="1.80" vaporized=""/>
    <tripinfo id="ourVehicle17" depart="35.00" departLane="23490810#1_0" departPos="0.00" departSpeed="15.00" departDelay="0.00" arrival="80.00" arrivalLane="-317948763_0" arrivalPos="75.38" arrivalSpeed="14.81" duration="45.00" routeLength="292.07" waitingTime="15.00" waitingCount="1" stopTime="0.00" timeLoss="24.19" rerouteNo="0" devices="tripinfo_ourVehicle17" vType="DEFAULT_VEHTYPE" speedFactor="1.80" vaporized=""/>
    <tripinfo id="ourVehicle30" depart="35.00" departLane="-23490810#1_0" departPos="0.00" departSpeed="15.00" departDelay="0.00" arrival="84.00" arrivalLane="317948763_0" arrivalPos="75.38" arrivalSpeed="14.09" duration="49.00" routeLength="318.32" waitingTime="18.00" waitingCount="1" stopTime="0.00" timeLoss="27.52" rerouteNo="0" devices="tripinfo_ourVehicle30" vType="DEFAULT_VEHTYPE" speedFactor="1.80" vaporized=""/>
    <tripinfo id="veh1" depart="10.00" departLane="-23490810#1_0" departPos="5.10" departSpeed="7.82" departDelay="0.00" arrival="87.00" arrivalLane="23490810#1_0" arrivalPos="56.51" arrivalSpeed="7.37" duration="77.00" routeLength="464.23" waitingTime="3.00" waitingCount="2" stopTime="0.00" timeLoss="16.34" rerouteNo="1" devices="tripinfo_veh1 routing_veh1" vType="veh_passenger" speedFactor="0.94" vaporized=""/>
    <tripinfo id="ourVehicle28" depart="74.00" departLane=":4611932501_7_0" departPos="0.00" departSpeed="15.00" departDelay="39.00" arrival="94.00" arrivalLane="317948763_0" arrivalPos="75.38" arrivalSpeed="14.88" duration="20.00" routeLength="260.38" waitingTime="0.00" waitingCount="0" stopTime="0.00" timeLoss="2.96" rerouteNo="0" devices="tripinfo_ourVehicle28" vType="DEFAULT_VEHTYPE" speedFactor="1.94" vaporized=""/>
</tripinfos>
