<?xml version="1.0" encoding="UTF-8"?>

<!-- generated on 2025-12-14T22:43:31.645741+01:00 by Eclipse SUMO GUI 1.25.0
<sumoConfiguration xmlns:xsi="http://www.w3.org/2001/XMLSchema-instance" xsi:noNamespaceSchemaLocation="http://sumo.dlr.de/xsd/sumoConfiguration.xsd">

    <input>
        <net-file value="SumoConfig/osm.net.xml.gz"/>
        <route-files value="SumoConfig/osm.passenger.trips.xml"/>
        <additional-files value="SumoConfig/osm.poly.xml.gz,SumoConfig/output.add.xml"/>
    </input>

    <output>
        <tripinfo-output value="SumoConfig/tripinfos.xml"/>
        <statistic-output value="SumoConfig/stats.xml"/>
    </output>

    <processing>
        <ignore-route-errors value="true"/>
        <tls.actuated.jam-threshold value="30"/>
    </processing>

    <routing>
        <device.rerouting.adaptation-steps value="18"/>
        <device.rerouting.adaptation-interval value="10"/>
    </routing>

    <report>
        <verbose value="true"/>
        <duration-log.statistics value="true"/>
        <no-step-log value="true"/>
    </report>

    <traci_server>
        <remote-port value="61691"/>
    </traci_server>

    <gui_only>
        <gui-settings-file value="SumoConfig/osm.view.xml"/>
        <start value="true"/>
    </gui_only>

</sumoConfiguration>
-->

<meandata xmlns:xsi="http://www.w3.org/2001/XMLSchema-instance" xsi:noNamespaceSchemaLocation="http://sumo.dlr.de/xsd/meandata_file.xsd">
    <interval begin="0.00" end="87.00" id="wizard_example">
        <edge id="-23490810#0" sampledSeconds="25.54" traveltime="79.13" overlapTraveltime="84.13" density="3.71" overlapDensity="3.71" laneDensity="3.71" occupancy="1.67" waitingTime="0.00" timeLoss="22.65" speed="1.00" speedRelative="0.12" departed="0" arrived="0" entered="1" left="0" laneChangedFrom="0" laneChangedTo="0" flow="13.36"/>
        <edge id="-23490810#1" sampledSeconds="167.19" traveltime="55.63" overlapTraveltime="60.64" density="30.19" overlapDensity="33.17" laneDensity="30.19" occupancy="15.84" waitingTime="0.00" timeLoss="146.77" speed="1.04" speedRelative="0.12" departed="3" arrived="0" entered="0" left="3" laneChangedFrom="0" laneChangedTo="0" flow="112.81"/>
        <edge id="-28378604" sampledSeconds="0.00" departed="0" arrived="0" entered="0" left="0" laneChangedFrom="0" laneChangedTo="0"/>
        <edge id="-317948763" sampledSeconds="0.00" departed="0" arrived="0" entered="0" left="0" laneChangedFrom="0" laneChangedTo="0"/>
        <edge id="-495683152" sampledSeconds="0.00" departed="0" arrived="0" entered="0" left="0" laneChangedFrom="0" laneChangedTo="0"/>
        <edge id="-5218604" sampledSeconds="31.54" traveltime="65.11" overlapTraveltime="70.11" density="5.57" overlapDensity="5.57" laneDensity="5.57" occupancy="2.56" waitingTime="0.00" timeLoss="27.79" speed="1.00" speedRelative="0.12" departed="0" arrived="0" entered="1" left="0" laneChangedFrom="0" laneChangedTo="0" flow="20.04"/>
        <edge id="23490810#0" sampledSeconds="0.00" departed="0" arrived="0" entered="0" left="0" laneChangedFrom="0" laneChangedTo="0"/>
        <edge id="23490810#1" sampledSeconds="0.00" departed="0" arrived="0" entered="0" left="0" laneChangedFrom="0" laneChangedTo="0"/>
        <edge id="28378604" sampledSeconds="0.00" departed="0" arrived="0" entered="0" left="0" laneChangedFrom="0" laneChangedTo="0"/>
        <edge id="317948763" sampledSeconds="0.00" departed="0" arrived="0" entered="0" left="0" laneChangedFrom="0" laneChangedTo="0"/>
        <edge id="495683152" sampledSeconds="30.42" traveltime="30.00" overlapTraveltime="35.08" density="8.74" overlapDensity="10.46" laneDensity="8.74" occupancy="4.80" waitingTime="0.00" timeLoss="26.26" speed="1.10" speedRelative="0.13" departed="1" arrived="0" entered="0" left="1" laneChangedFrom="0" laneChangedTo="0" flow="34.48"/>
        <edge id="5218604" sampledSeconds="10.28" traveltime="64.89" overlapTraveltime="69.89" density="1.82" overlapDensity="1.82" laneDensity="1.82" occupancy="0.69" waitingTime="0.00" timeLoss="8.96" speed="1.00" speedRelative="0.12" departed="0" arrived="0" entered="1" left="0" laneChangedFrom="0" laneChangedTo="0" flow="6.56"/>
    </interval>
</meandata>
