<?xml version="1.0" encoding="UTF-8"?>

<!-- generated on 2026-01-18 21:45:21 by Eclipse SUMO GUI Version 1.24.0
<sumoConfiguration xmlns:xsi="http://www.w3.org/2001/XMLSchema-instance" xsi:noNamespaceSchemaLocation="http://sumo.dlr.de/xsd/sumoConfiguration.xsd">

    <input>
        <net-file value="SumoConfig/osm.net.xml.gz"/>
        <route-files value="SumoConfig/osm.passenger.trips.xml"/>
        <additional-files value="SumoConfig/osm.poly.xml.gz,SumoConfig/output.add.xml"/>
    </input>

    <output>
        <tripinfo-output value="SumoConfig/tripinfos.xml"/>
        <statistic-output value="SumoConfig/stats.xml"/>
    </output>

    <processing>
        <ignore-route-errors value="true"/>
        <tls.actuated.jam-threshold value="30"/>
    </processing>

    <routing>
        <device.rerouting.adaptation-steps value="18"/>
        <device.rerouting.adaptation-interval value="10"/>
    </routing>

    <report>
        <verbose value="true"/>
        <duration-log.statistics value="true"/>
        <no-step-log value="true"/>
    </report>

    <traci_server>
        <remote-port value="52531"/>
    </traci_server>

    <gui_only>
        <gui-settings-file value="SumoConfig/osm.view.xml"/>
        <start value="true"/>
    </gui_only>

</sumoConfiguration>
-->

<meandata xmlns:xsi="http://www.w3.org/2001/XMLSchema-instance" xsi:noNamespaceSchemaLocation="http://sumo.dlr.de/xsd/meandata_file.xsd">
    <interval begin="0.00" end="12.00" id="wizard_example">
        <edge id="-23490810#0" sampledSeconds="7.72" traveltime="5.57" overlapTraveltime="5.83" density="8.13" laneDensity="8.13" occupancy="3.77" waitingTime="0.00" timeLoss="2.17" speed="14.43" speedRelative="1.73" departed="0" arrived="0" entered="2" left="1" laneChangedFrom="0" laneChangedTo="0"/>
        <edge id="-23490810#1" sampledSeconds="8.13" traveltime="7.33" overlapTraveltime="7.91" density="11.70" laneDensity="11.70" occupancy="5.64" waitingTime="0.00" timeLoss="0.71" speed="7.95" speedRelative="0.95" departed="2" arrived="0" entered="0" left="1" laneChangedFrom="0" laneChangedTo="0"/>
        <edge id="-28378604" sampledSeconds="0.00" departed="0" arrived="0" entered="0" left="0" laneChangedFrom="0" laneChangedTo="0"/>
        <edge id="-317948763" sampledSeconds="0.03" traveltime="3.44" overlapTraveltime="3.66" density="0.04" laneDensity="0.04" occupancy="0.00" waitingTime="0.00" timeLoss="0.01" speed="21.94" speedRelative="2.63" departed="0" arrived="0" entered="1" left="0" laneChangedFrom="0" laneChangedTo="0"/>
        <edge id="-495683152" sampledSeconds="2.53" traveltime="2.19" overlapTraveltime="2.53" density="6.30" laneDensity="6.30" occupancy="2.73" waitingTime="0.00" timeLoss="1.41" speed="15.19" speedRelative="1.82" departed="0" arrived="0" entered="1" left="1" laneChangedFrom="0" laneChangedTo="0"/>
        <edge id="-5218604" sampledSeconds="11.39" traveltime="5.95" overlapTraveltime="6.46" density="14.58" laneDensity="14.58" occupancy="6.45" waitingTime="0.00" timeLoss="3.42" speed="10.85" speedRelative="1.30" departed="1" arrived="0" entered="2" left="1" laneChangedFrom="0" laneChangedTo="0"/>
        <edge id="23490810#0" sampledSeconds="6.82" traveltime="6.91" overlapTraveltime="7.34" density="7.16" laneDensity="7.16" occupancy="3.49" waitingTime="0.00" timeLoss="4.37" speed="11.50" speedRelative="1.38" departed="0" arrived="0" entered="1" left="0" laneChangedFrom="0" laneChangedTo="0"/>
        <edge id="23490810#1" sampledSeconds="0.00" departed="0" arrived="0" entered="0" left="0" laneChangedFrom="0" laneChangedTo="0"/>
        <edge id="28378604" sampledSeconds="5.00" traveltime="6.64" overlapTraveltime="6.99" density="4.35" laneDensity="4.35" occupancy="2.10" waitingTime="0.00" timeLoss="0.20" speed="14.41" speedRelative="1.73" departed="1" arrived="0" entered="0" left="0" laneChangedFrom="0" laneChangedTo="0"/>
        <edge id="317948763" sampledSeconds="0.00" departed="0" arrived="0" entered="0" left="0" laneChangedFrom="0" laneChangedTo="0"/>
        <edge id="495683152" sampledSeconds="8.14" traveltime="2.50" overlapTraveltime="2.87" density="20.29" laneDensity="20.29" occupancy="9.04" waitingTime="0.00" timeLoss="2.10" speed="13.40" speedRelative="1.61" departed="2" arrived="1" entered="1" left="1" laneChangedFrom="0" laneChangedTo="0"/>
        <edge id="5218604" sampledSeconds="6.07" traveltime="4.83" overlapTraveltime="5.20" density="7.80" laneDensity="7.80" occupancy="3.67" waitingTime="0.00" timeLoss="3.18" speed="13.44" speedRelative="1.61" departed="0" arrived="0" entered="2" left="0" laneChangedFrom="0" laneChangedTo="0"/>
    </interval>
</meandata>
