<?xml version="1.0" encoding="UTF-8"?>

<!-- generated on 2025-12-16T23:42:19.686520+01:00 by Eclipse SUMO GUI 1.25.0
<sumoConfiguration xmlns:xsi="http://www.w3.org/2001/XMLSchema-instance" xsi:noNamespaceSchemaLocation="http://sumo.dlr.de/xsd/sumoConfiguration.xsd">

    <input>
        <net-file value="SumoConfig/osm.net.xml.gz"/>
        <route-files value="SumoConfig/osm.passenger.trips.xml"/>
        <additional-files value="SumoConfig/osm.poly.xml.gz,SumoConfig/output.add.xml"/>
    </input>

    <output>
        <tripinfo-output value="SumoConfig/tripinfos.xml"/>
        <statistic-output value="SumoConfig/stats.xml"/>
    </output>

    <processing>
        <ignore-route-errors value="true"/>
        <tls.actuated.jam-threshold value="30"/>
    </processing>

    <routing>
        <device.rerouting.adaptation-steps value="18"/>
        <device.rerouting.adaptation-interval value="10"/>
    </routing>

    <report>
        <verbose value="true"/>
        <duration-log.statistics value="true"/>
        <no-step-log value="true"/>
    </report>

    <traci_server>
        <remote-port value="54490"/>
    </traci_server>

    <gui_only>
        <gui-settings-file value="SumoConfig/osm.view.xml"/>
        <start value="true"/>
    </gui_only>

</sumoConfiguration>
-->

<meandata xmlns:xsi="http://www.w3.org/2001/XMLSchema-instance" xsi:noNamespaceSchemaLocation="http://sumo.dlr.de/xsd/meandata_file.xsd">
    <interval begin="0.00" end="123.00" id="wizard_example">
        <edge id="-23490810#0" sampledSeconds="92.06" traveltime="79.13" overlapTraveltime="84.13" density="9.46" overlapDensity="9.46" laneDensity="9.46" occupancy="4.47" waitingTime="0.00" timeLoss="81.19" speed="1.00" speedRelative="0.12" departed="0" arrived="0" entered="2" left="0" laneChangedFrom="0" laneChangedTo="0" flow="34.05"/>
        <edge id="-23490810#1" sampledSeconds="167.88" traveltime="55.88" overlapTraveltime="60.89" density="21.45" overlapDensity="23.56" laneDensity="21.45" occupancy="11.25" waitingTime="0.00" timeLoss="146.47" speed="1.03" speedRelative="0.12" departed="3" arrived="0" entered="0" left="3" laneChangedFrom="0" laneChangedTo="0" flow="79.82"/>
        <edge id="-28378604" sampledSeconds="0.00" departed="0" arrived="0" entered="0" left="0" laneChangedFrom="0" laneChangedTo="0"/>
        <edge id="-317948763" sampledSeconds="0.00" departed="0" arrived="0" entered="0" left="0" laneChangedFrom="0" laneChangedTo="0"/>
        <edge id="-495683152" sampledSeconds="0.00" departed="0" arrived="0" entered="0" left="0" laneChangedFrom="0" laneChangedTo="0"/>
        <edge id="-5218604" sampledSeconds="66.50" traveltime="65.11" overlapTraveltime="70.11" density="8.13" overlapDensity="8.30" laneDensity="8.13" occupancy="3.98" waitingTime="0.00" timeLoss="57.48" speed="1.00" speedRelative="0.12" departed="0" arrived="0" entered="1" left="1" laneChangedFrom="0" laneChangedTo="0" flow="29.27"/>
        <edge id="23490810#0" sampledSeconds="0.00" departed="0" arrived="0" entered="0" left="0" laneChangedFrom="0" laneChangedTo="0"/>
        <edge id="23490810#1" sampledSeconds="28.00" traveltime="36.80" overlapTraveltime="40.05" density="4.03" overlapDensity="4.03" laneDensity="4.03" occupancy="2.00" waitingTime="0.00" timeLoss="25.13" speed="1.54" speedRelative="0.18" departed="1" arrived="0" entered="0" left="0" laneChangedFrom="0" laneChangedTo="0" flow="22.27"/>
        <edge id="28378604" sampledSeconds="0.00" departed="0" arrived="0" entered="0" left="0" laneChangedFrom="0" laneChangedTo="0"/>
        <edge id="317948763" sampledSeconds="0.00" departed="0" arrived="0" entered="0" left="0" laneChangedFrom="0" laneChangedTo="0"/>
        <edge id="495683152" sampledSeconds="62.46" traveltime="31.61" overlapTraveltime="36.50" density="13.97" overlapDensity="15.19" laneDensity="13.97" occupancy="7.26" waitingTime="13.00" timeLoss="55.55" speed="1.05" speedRelative="0.13" departed="2" arrived="0" entered="0" left="1" laneChangedFrom="0" laneChangedTo="0" flow="52.96"/>
        <edge id="5218604" sampledSeconds="51.28" traveltime="50.20" overlapTraveltime="54.07" density="6.42" overlapDensity="6.42" laneDensity="6.42" occupancy="3.04" waitingTime="0.00" timeLoss="44.03" speed="1.29" speedRelative="0.16" departed="1" arrived="0" entered="1" left="0" laneChangedFrom="0" laneChangedTo="0" flow="29.90"/>
    </interval>
</meandata>
