<?xml version="1.0" encoding="UTF-8"?>

<!-- generated on 2025-12-14 23:35:31 by Eclipse SUMO GUI Version 1.24.0
<sumoConfiguration xmlns:xsi="http://www.w3.org/2001/XMLSchema-instance" xsi:noNamespaceSchemaLocation="http://sumo.dlr.de/xsd/sumoConfiguration.xsd">

    <input>
        <net-file value="SumoConfig/osm.net.xml.gz"/>
        <route-files value="SumoConfig/osm.passenger.trips.xml"/>
        <additional-files value="SumoConfig/osm.poly.xml.gz,SumoConfig/output.add.xml"/>
    </input>

    <output>
        <tripinfo-output value="SumoConfig/tripinfos.xml"/>
        <statistic-output value="SumoConfig/stats.xml"/>
    </output>

    <processing>
        <ignore-route-errors value="true"/>
        <tls.actuated.jam-threshold value="30"/>
    </processing>

    <routing>
        <device.rerouting.adaptation-steps value="18"/>
        <device.rerouting.adaptation-interval value="10"/>
    </routing>

    <report>
        <verbose value="true"/>
        <duration-log.statistics value="true"/>
        <no-step-log value="true"/>
    </report>

    <traci_server>
        <remote-port value="51191"/>
    </traci_server>

    <gui_only>
        <gui-settings-file value="SumoConfig/osm.view.xml"/>
        <start value="true"/>
    </gui_only>

</sumoConfiguration>
-->

<meandata xmlns:xsi="http://www.w3.org/2001/XMLSchema-instance" xsi:noNamespaceSchemaLocation="http://sumo.dlr.de/xsd/meandata_file.xsd">
    <interval begin="0.00" end="1008.00" id="wizard_example">
        <edge id="-23490810#0" sampledSeconds="252.39" traveltime="79.13" overlapTraveltime="84.13" density="3.16" laneDensity="3.16" occupancy="1.49" waitingTime="0.00" timeLoss="219.91" speed="1.00" speedRelative="0.12" departed="0" arrived="0" entered="3" left="3" laneChangedFrom="0" laneChangedTo="0"/>
        <edge id="-23490810#1" sampledSeconds="1701.47" traveltime="58.63" overlapTraveltime="63.94" density="29.13" laneDensity="29.13" occupancy="13.46" waitingTime="19.00" timeLoss="1579.38" speed="0.98" speedRelative="0.12" departed="3" arrived="0" entered="25" left="26" laneChangedFrom="0" laneChangedTo="0"/>
        <edge id="-28378604" sampledSeconds="3609.52" traveltime="95.30" overlapTraveltime="100.30" density="37.57" laneDensity="37.57" occupancy="17.84" waitingTime="0.00" timeLoss="3355.86" speed="1.00" speedRelative="0.12" departed="0" arrived="0" entered="39" left="34" laneChangedFrom="0" laneChangedTo="0"/>
        <edge id="-317948763" sampledSeconds="1414.40" traveltime="63.82" overlapTraveltime="70.72" density="18.61" laneDensity="18.61" occupancy="8.75" waitingTime="60.00" timeLoss="1289.98" speed="1.14" speedRelative="0.14" departed="17" arrived="0" entered="3" left="20" laneChangedFrom="0" laneChangedTo="0"/>
        <edge id="-495683152" sampledSeconds="0.00" departed="0" arrived="0" entered="0" left="0" laneChangedFrom="0" laneChangedTo="0"/>
        <edge id="-5218604" sampledSeconds="4139.53" traveltime="196.06" overlapTraveltime="202.32" density="63.07" laneDensity="63.07" occupancy="30.79" waitingTime="2665.00" timeLoss="4021.21" speed="0.35" speedRelative="0.04" departed="0" arrived="0" entered="21" left="18" laneChangedFrom="0" laneChangedTo="0"/>
        <edge id="23490810#0" sampledSeconds="84.41" traveltime="79.41" overlapTraveltime="84.41" density="1.05" laneDensity="1.05" occupancy="0.50" waitingTime="0.00" timeLoss="73.61" speed="1.00" speedRelative="0.12" departed="0" arrived="0" entered="1" left="1" laneChangedFrom="0" laneChangedTo="0"/>
        <edge id="23490810#1" sampledSeconds="1389.97" traveltime="43.58" overlapTraveltime="48.44" density="24.40" laneDensity="24.40" occupancy="11.51" waitingTime="0.00" timeLoss="1248.10" speed="1.27" speedRelative="0.15" departed="25" arrived="4" entered="4" left="25" laneChangedFrom="0" laneChangedTo="0"/>
        <edge id="28378604" sampledSeconds="7563.13" traveltime="473.35" overlapTraveltime="504.36" density="78.40" laneDensity="78.40" occupancy="37.36" waitingTime="5934.00" timeLoss="7444.53" speed="0.20" speedRelative="0.02" departed="0" arrived="0" entered="20" left="9" laneChangedFrom="0" laneChangedTo="0"/>
        <edge id="317948763" sampledSeconds="2518.43" traveltime="75.38" overlapTraveltime="80.38" density="33.14" laneDensity="33.14" occupancy="15.99" waitingTime="0.00" timeLoss="2345.32" speed="1.00" speedRelative="0.12" departed="0" arrived="31" entered="34" left="1" laneChangedFrom="0" laneChangedTo="0"/>
        <edge id="495683152" sampledSeconds="865.67" traveltime="27.68" overlapTraveltime="32.68" density="25.68" laneDensity="25.68" occupancy="11.78" waitingTime="233.00" timeLoss="793.91" speed="1.18" speedRelative="0.14" departed="27" arrived="0" entered="0" left="26" laneChangedFrom="0" laneChangedTo="0"/>
        <edge id="5218604" sampledSeconds="3160.22" traveltime="76.87" overlapTraveltime="82.15" density="48.31" laneDensity="48.31" occupancy="22.95" waitingTime="521.00" timeLoss="2974.09" speed="0.85" speedRelative="0.10" departed="4" arrived="12" entered="37" left="26" laneChangedFrom="0" laneChangedTo="0"/>
    </interval>
</meandata>
