<?xml version="1.0" encoding="UTF-8"?>

<!-- generated on 2025-12-14T23:40:02.937866+01:00 by Eclipse SUMO GUI 1.25.0
<sumoConfiguration xmlns:xsi="http://www.w3.org/2001/XMLSchema-instance" xsi:noNamespaceSchemaLocation="http://sumo.dlr.de/xsd/sumoConfiguration.xsd">

    <input>
        <net-file value="SumoConfig/osm.net.xml.gz"/>
        <route-files value="SumoConfig/osm.passenger.trips.xml"/>
        <additional-files value="SumoConfig/osm.poly.xml.gz,SumoConfig/output.add.xml"/>
    </input>

    <output>
        <tripinfo-output value="SumoConfig/tripinfos.xml"/>
        <statistic-output value="SumoConfig/stats.xml"/>
    </output>

    <processing>
        <ignore-route-errors value="true"/>
        <tls.actuated.jam-threshold value="30"/>
    </processing>

    <routing>
        <device.rerouting.adaptation-steps value="18"/>
        <device.rerouting.adaptation-interval value="10"/>
    </routing>

    <report>
        <verbose value="true"/>
        <duration-log.statistics value="true"/>
        <no-step-log value="true"/>
    </report>

    <traci_server>
        <remote-port value="49528"/>
    </traci_server>

    <gui_only>
        <gui-settings-file value="SumoConfig/osm.view.xml"/>
        <start value="true"/>
    </gui_only>

</sumoConfiguration>
-->

<meandata xmlns:xsi="http://www.w3.org/2001/XMLSchema-instance" xsi:noNamespaceSchemaLocation="http://sumo.dlr.de/xsd/meandata_file.xsd">
    <interval begin="0.00" end="291.00" id="wizard_example">
        <edge id="-23490810#0" sampledSeconds="252.39" traveltime="79.13" overlapTraveltime="84.13" density="10.31" overlapDensity="10.96" laneDensity="10.31" occupancy="5.15" waitingTime="0.00" timeLoss="219.91" speed="1.00" speedRelative="0.12" departed="0" arrived="0" entered="3" left="3" laneChangedFrom="0" laneChangedTo="0" flow="37.11"/>
        <edge id="-23490810#1" sampledSeconds="186.70" traveltime="56.10" overlapTraveltime="61.09" density="10.18" overlapDensity="11.07" laneDensity="10.18" occupancy="5.24" waitingTime="0.00" timeLoss="164.03" speed="1.03" speedRelative="0.12" departed="3" arrived="0" entered="1" left="3" laneChangedFrom="0" laneChangedTo="0" flow="37.77"/>
        <edge id="-28378604" sampledSeconds="105.33" traveltime="95.30" overlapTraveltime="100.30" density="3.62" overlapDensity="3.80" laneDensity="3.62" occupancy="1.76" waitingTime="0.00" timeLoss="91.87" speed="1.00" speedRelative="0.12" departed="0" arrived="0" entered="2" left="1" laneChangedFrom="0" laneChangedTo="0" flow="13.02"/>
        <edge id="-317948763" sampledSeconds="262.55" traveltime="67.38" overlapTraveltime="72.14" density="11.51" overlapDensity="11.97" laneDensity="11.51" occupancy="5.69" waitingTime="0.00" timeLoss="229.08" speed="1.11" speedRelative="0.13" departed="2" arrived="0" entered="3" left="2" laneChangedFrom="0" laneChangedTo="0" flow="46.18"/>
        <edge id="-495683152" sampledSeconds="0.00" departed="0" arrived="0" entered="0" left="0" laneChangedFrom="0" laneChangedTo="0"/>
        <edge id="-5218604" sampledSeconds="104.63" traveltime="65.11" overlapTraveltime="70.11" density="5.26" overlapDensity="5.52" laneDensity="5.26" occupancy="2.56" waitingTime="0.00" timeLoss="92.80" speed="1.00" speedRelative="0.12" departed="0" arrived="0" entered="2" left="1" laneChangedFrom="0" laneChangedTo="0" flow="18.93"/>
        <edge id="23490810#0" sampledSeconds="0.00" departed="0" arrived="0" entered="0" left="0" laneChangedFrom="0" laneChangedTo="0"/>
        <edge id="23490810#1" sampledSeconds="98.51" traveltime="38.15" overlapTraveltime="42.22" density="5.69" overlapDensity="5.99" laneDensity="5.69" occupancy="2.90" waitingTime="0.00" timeLoss="88.52" speed="1.46" speedRelative="0.17" departed="3" arrived="0" entered="0" left="1" laneChangedFrom="0" laneChangedTo="0" flow="29.82"/>
        <edge id="28378604" sampledSeconds="87.90" traveltime="95.70" overlapTraveltime="100.70" density="3.16" overlapDensity="3.16" laneDensity="3.16" occupancy="1.49" waitingTime="0.00" timeLoss="77.53" speed="1.00" speedRelative="0.12" departed="0" arrived="0" entered="2" left="0" laneChangedFrom="0" laneChangedTo="0" flow="11.36"/>
        <edge id="317948763" sampledSeconds="42.16" traveltime="75.38" overlapTraveltime="80.38" density="1.92" overlapDensity="1.92" laneDensity="1.92" occupancy="0.90" waitingTime="0.00" timeLoss="36.77" speed="1.00" speedRelative="0.12" departed="0" arrived="0" entered="1" left="0" laneChangedFrom="0" laneChangedTo="0" flow="6.92"/>
        <edge id="495683152" sampledSeconds="90.34" traveltime="20.61" overlapTraveltime="25.31" density="7.74" overlapDensity="9.28" laneDensity="7.74" occupancy="4.22" waitingTime="0.00" timeLoss="78.55" speed="1.52" speedRelative="0.18" departed="4" arrived="0" entered="0" left="3" laneChangedFrom="0" laneChangedTo="0" flow="42.34"/>
        <edge id="5218604" sampledSeconds="162.89" traveltime="52.60" overlapTraveltime="56.98" density="8.36" overlapDensity="8.63" laneDensity="8.36" occupancy="4.16" waitingTime="8.00" timeLoss="145.10" speed="1.23" speedRelative="0.15" departed="3" arrived="0" entered="1" left="1" laneChangedFrom="0" laneChangedTo="0" flow="36.92"/>
    </interval>
</meandata>
