<?xml version="1.0" encoding="UTF-8"?>

<!-- generated on 2025-12-15T08:52:32.289905+01:00 by Eclipse SUMO GUI 1.25.0
<sumoConfiguration xmlns:xsi="http://www.w3.org/2001/XMLSchema-instance" xsi:noNamespaceSchemaLocation="http://sumo.dlr.de/xsd/sumoConfiguration.xsd">

    <input>
        <net-file value="SumoConfig/osm.net.xml.gz"/>
        <route-files value="SumoConfig/osm.passenger.trips.xml"/>
        <additional-files value="SumoConfig/osm.poly.xml.gz,SumoConfig/output.add.xml"/>
    </input>

    <output>
        <tripinfo-output value="SumoConfig/tripinfos.xml"/>
        <statistic-output value="SumoConfig/stats.xml"/>
    </output>

    <processing>
        <ignore-route-errors value="true"/>
        <tls.actuated.jam-threshold value="30"/>
    </processing>

    <routing>
        <device.rerouting.adaptation-steps value="18"/>
        <device.rerouting.adaptation-interval value="10"/>
    </routing>

    <report>
        <verbose value="true"/>
        <duration-log.statistics value="true"/>
        <no-step-log value="true"/>
    </report>

    <traci_server>
        <remote-port value="51167"/>
    </traci_server>

    <gui_only>
        <gui-settings-file value="SumoConfig/osm.view.xml"/>
        <start value="true"/>
    </gui_only>

</sumoConfiguration>
-->

<meandata xmlns:xsi="http://www.w3.org/2001/XMLSchema-instance" xsi:noNamespaceSchemaLocation="http://sumo.dlr.de/xsd/meandata_file.xsd">
    <interval begin="0.00" end="70.00" id="wizard_example">
        <edge id="-23490810#0" sampledSeconds="8.54" traveltime="79.13" overlapTraveltime="84.13" density="1.54" overlapDensity="1.54" laneDensity="1.54" occupancy="0.55" waitingTime="0.00" timeLoss="7.57" speed="1.00" speedRelative="0.12" departed="0" arrived="0" entered="1" left="0" laneChangedFrom="0" laneChangedTo="0" flow="5.55"/>
        <edge id="-23490810#1" sampledSeconds="151.35" traveltime="55.46" overlapTraveltime="60.41" density="34.85" overlapDensity="37.32" laneDensity="34.85" occupancy="18.04" waitingTime="0.00" timeLoss="132.69" speed="1.04" speedRelative="0.13" departed="3" arrived="0" entered="0" left="2" laneChangedFrom="0" laneChangedTo="0" flow="130.71"/>
        <edge id="-28378604" sampledSeconds="0.00" departed="0" arrived="0" entered="0" left="0" laneChangedFrom="0" laneChangedTo="0"/>
        <edge id="-317948763" sampledSeconds="0.00" departed="0" arrived="0" entered="0" left="0" laneChangedFrom="0" laneChangedTo="0"/>
        <edge id="-495683152" sampledSeconds="0.00" departed="0" arrived="0" entered="0" left="0" laneChangedFrom="0" laneChangedTo="0"/>
        <edge id="-5218604" sampledSeconds="14.54" traveltime="65.11" overlapTraveltime="70.11" density="3.19" overlapDensity="3.19" laneDensity="3.19" occupancy="1.32" waitingTime="0.00" timeLoss="12.81" speed="1.00" speedRelative="0.12" departed="0" arrived="0" entered="1" left="0" laneChangedFrom="0" laneChangedTo="0" flow="11.48"/>
        <edge id="23490810#0" sampledSeconds="0.00" departed="0" arrived="0" entered="0" left="0" laneChangedFrom="0" laneChangedTo="0"/>
        <edge id="23490810#1" sampledSeconds="0.00" departed="0" arrived="0" entered="0" left="0" laneChangedFrom="0" laneChangedTo="0"/>
        <edge id="28378604" sampledSeconds="0.00" departed="0" arrived="0" entered="0" left="0" laneChangedFrom="0" laneChangedTo="0"/>
        <edge id="317948763" sampledSeconds="0.00" departed="0" arrived="0" entered="0" left="0" laneChangedFrom="0" laneChangedTo="0"/>
        <edge id="495683152" sampledSeconds="30.42" traveltime="30.00" overlapTraveltime="35.08" density="10.86" overlapDensity="13.00" laneDensity="10.86" occupancy="5.96" waitingTime="0.00" timeLoss="26.26" speed="1.10" speedRelative="0.13" departed="1" arrived="0" entered="0" left="1" laneChangedFrom="0" laneChangedTo="0" flow="42.85"/>
        <edge id="5218604" sampledSeconds="0.00" departed="0" arrived="0" entered="0" left="0" laneChangedFrom="0" laneChangedTo="0"/>
    </interval>
</meandata>
