<?xml version="1.0" encoding="UTF-8"?>

<!-- generated on 2026-01-15 20:27:50 by Eclipse SUMO GUI Version 1.24.0
<sumoConfiguration xmlns:xsi="http://www.w3.org/2001/XMLSchema-instance" xsi:noNamespaceSchemaLocation="http://sumo.dlr.de/xsd/sumoConfiguration.xsd">

    <input>
        <net-file value="SumoConfig/osm.net.xml.gz"/>
        <route-files value="SumoConfig/osm.passenger.trips.xml"/>
        <additional-files value="SumoConfig/osm.poly.xml.gz,SumoConfig/output.add.xml"/>
    </input>

    <output>
        <tripinfo-output value="SumoConfig/tripinfos.xml"/>
        <statistic-output value="SumoConfig/stats.xml"/>
    </output>

    <processing>
        <ignore-route-errors value="true"/>
        <tls.actuated.jam-threshold value="30"/>
    </processing>

    <routing>
        <device.rerouting.adaptation-steps value="18"/>
        <device.rerouting.adaptation-interval value="10"/>
    </routing>

    <report>
        <verbose value="true"/>
        <duration-log.statistics value="true"/>
        <no-step-log value="true"/>
    </report>

    <traci_server>
        <remote-port value="55963"/>
    </traci_server>

    <gui_only>
        <gui-settings-file value="SumoConfig/osm.view.xml"/>
        <start value="true"/>
    </gui_only>

</sumoConfiguration>
-->

<meandata xmlns:xsi="http://www.w3.org/2001/XMLSchema-instance" xsi:noNamespaceSchemaLocation="http://sumo.dlr.de/xsd/meandata_file.xsd">
    <interval begin="0.00" end="222.00" id="wizard_example">
        <edge id="-23490810#0" sampledSeconds="35.90" traveltime="11.03" overlapTraveltime="11.97" density="2.04" laneDensity="2.04" occupancy="0.95" waitingTime="0.00" timeLoss="3.47" speed="7.03" speedRelative="0.84" departed="0" arrived="0" entered="3" left="3" laneChangedFrom="0" laneChangedTo="0"/>
        <edge id="-23490810#1" sampledSeconds="57.74" traveltime="6.83" overlapTraveltime="7.44" density="4.49" laneDensity="4.49" occupancy="2.07" waitingTime="0.00" timeLoss="15.12" speed="8.46" speedRelative="1.02" departed="3" arrived="0" entered="5" left="8" laneChangedFrom="0" laneChangedTo="0"/>
        <edge id="-28378604" sampledSeconds="245.05" traveltime="8.03" overlapTraveltime="8.82" density="11.58" laneDensity="11.58" occupancy="5.39" waitingTime="0.00" timeLoss="47.18" speed="11.38" speedRelative="1.37" departed="0" arrived="0" entered="28" left="27" laneChangedFrom="0" laneChangedTo="0"/>
        <edge id="-317948763" sampledSeconds="116.56" traveltime="6.68" overlapTraveltime="7.28" density="6.97" laneDensity="6.97" occupancy="3.23" waitingTime="0.00" timeLoss="13.00" speed="11.03" speedRelative="1.32" departed="13" arrived="0" entered="3" left="16" laneChangedFrom="0" laneChangedTo="0"/>
        <edge id="-495683152" sampledSeconds="0.00" departed="0" arrived="0" entered="0" left="0" laneChangedFrom="0" laneChangedTo="0"/>
        <edge id="-5218604" sampledSeconds="265.72" traveltime="8.26" overlapTraveltime="9.16" density="18.38" laneDensity="18.38" occupancy="8.45" waitingTime="1.00" timeLoss="102.12" speed="7.65" speedRelative="0.92" departed="0" arrived="0" entered="29" left="29" laneChangedFrom="0" laneChangedTo="0"/>
        <edge id="23490810#0" sampledSeconds="12.64" traveltime="11.99" overlapTraveltime="12.64" density="0.72" laneDensity="0.72" occupancy="0.33" waitingTime="0.00" timeLoss="1.84" speed="6.68" speedRelative="0.80" departed="0" arrived="0" entered="1" left="1" laneChangedFrom="0" laneChangedTo="0"/>
        <edge id="23490810#1" sampledSeconds="58.94" traveltime="5.96" overlapTraveltime="6.67" density="4.70" laneDensity="4.70" occupancy="2.16" waitingTime="0.00" timeLoss="6.02" speed="9.22" speedRelative="1.11" departed="5" arrived="4" entered="4" left="5" laneChangedFrom="0" laneChangedTo="0"/>
        <edge id="28378604" sampledSeconds="553.94" traveltime="32.40" overlapTraveltime="34.62" density="26.07" laneDensity="26.07" occupancy="12.33" waitingTime="311.00" timeLoss="428.38" speed="2.91" speedRelative="0.35" departed="0" arrived="0" entered="16" left="16" laneChangedFrom="0" laneChangedTo="0"/>
        <edge id="317948763" sampledSeconds="185.44" traveltime="6.64" overlapTraveltime="7.08" density="11.08" laneDensity="11.08" occupancy="5.14" waitingTime="0.00" timeLoss="39.70" speed="11.35" speedRelative="1.36" departed="0" arrived="25" entered="27" left="1" laneChangedFrom="0" laneChangedTo="0"/>
        <edge id="495683152" sampledSeconds="134.68" traveltime="4.30" overlapTraveltime="4.83" density="18.14" laneDensity="18.14" occupancy="8.26" waitingTime="43.00" timeLoss="58.47" speed="7.95" speedRelative="0.95" departed="28" arrived="0" entered="0" left="28" laneChangedFrom="0" laneChangedTo="0"/>
        <edge id="5218604" sampledSeconds="237.84" traveltime="6.08" overlapTraveltime="6.50" density="16.51" laneDensity="16.51" occupancy="7.58" waitingTime="13.00" timeLoss="60.86" speed="10.75" speedRelative="1.29" departed="7" arrived="23" entered="31" left="13" laneChangedFrom="0" laneChangedTo="0"/>
    </interval>
</meandata>
