<?xml version="1.0" encoding="UTF-8"?>

<!-- generated on 2026-01-18T21:06:47.657682+01:00 by Eclipse SUMO GUI 1.25.0
<sumoConfiguration xmlns:xsi="http://www.w3.org/2001/XMLSchema-instance" xsi:noNamespaceSchemaLocation="http://sumo.dlr.de/xsd/sumoConfiguration.xsd">

    <input>
        <net-file value="SumoConfig/osm.net.xml.gz"/>
        <route-files value="SumoConfig/osm.passenger.trips.xml"/>
        <additional-files value="SumoConfig/osm.poly.xml.gz,SumoConfig/output.add.xml"/>
    </input>

    <output>
        <tripinfo-output value="SumoConfig/tripinfos.xml"/>
        <statistic-output value="SumoConfig/stats.xml"/>
    </output>

    <processing>
        <ignore-route-errors value="true"/>
        <tls.actuated.jam-threshold value="30"/>
    </processing>

    <routing>
        <device.rerouting.adaptation-steps value="18"/>
        <device.rerouting.adaptation-interval value="10"/>
    </routing>

    <report>
        <verbose value="true"/>
        <duration-log.statistics value="true"/>
        <no-step-log value="true"/>
    </report>

    <traci_server>
        <remote-port value="53314"/>
    </traci_server>

    <gui_only>
        <gui-settings-file value="SumoConfig/osm.view.xml"/>
        <start value="true"/>
    </gui_only>

</sumoConfiguration>
-->

<meandata xmlns:xsi="http://www.w3.org/2001/XMLSchema-instance" xsi:noNamespaceSchemaLocation="http://sumo.dlr.de/xsd/meandata_file.xsd">
    <interval begin="0.00" end="187.00" id="wizard_example">
        <edge id="-23490810#0" sampledSeconds="35.90" traveltime="11.03" overlapTraveltime="11.97" density="2.24" overlapDensity="2.43" laneDensity="2.24" occupancy="1.13" waitingTime="0.00" timeLoss="3.47" speed="7.03" speedRelative="0.84" departed="0" arrived="0" entered="3" left="3" laneChangedFrom="0" laneChangedTo="0" flow="56.61"/>
        <edge id="-23490810#1" sampledSeconds="23.32" traveltime="7.82" overlapTraveltime="8.46" density="1.97" overlapDensity="2.15" laneDensity="1.97" occupancy="1.03" waitingTime="0.00" timeLoss="1.89" speed="7.44" speedRelative="0.89" departed="3" arrived="0" entered="0" left="3" laneChangedFrom="0" laneChangedTo="0" flow="52.86"/>
        <edge id="-28378604" sampledSeconds="15.32" traveltime="13.84" overlapTraveltime="15.32" density="0.78" overlapDensity="0.86" laneDensity="0.78" occupancy="0.40" waitingTime="0.00" timeLoss="2.07" speed="6.55" speedRelative="0.79" departed="0" arrived="0" entered="1" left="1" laneChangedFrom="0" laneChangedTo="0" flow="18.30"/>
        <edge id="-317948763" sampledSeconds="34.74" traveltime="10.61" overlapTraveltime="11.58" density="2.26" overlapDensity="2.46" laneDensity="2.26" occupancy="1.14" waitingTime="0.00" timeLoss="3.30" speed="6.94" speedRelative="0.83" departed="0" arrived="0" entered="3" left="3" laneChangedFrom="0" laneChangedTo="0" flow="56.44"/>
        <edge id="-495683152" sampledSeconds="0.00" departed="0" arrived="0" entered="0" left="0" laneChangedFrom="0" laneChangedTo="0"/>
        <edge id="-5218604" sampledSeconds="44.94" traveltime="10.12" overlapTraveltime="11.24" density="3.33" overlapDensity="3.69" laneDensity="3.33" occupancy="1.70" waitingTime="1.00" timeLoss="7.96" speed="6.24" speedRelative="0.75" departed="0" arrived="0" entered="4" left="4" laneChangedFrom="0" laneChangedTo="0" flow="74.71"/>
        <edge id="23490810#0" sampledSeconds="12.71" traveltime="12.06" overlapTraveltime="12.71" density="0.81" overlapDensity="0.86" laneDensity="0.81" occupancy="0.39" waitingTime="0.00" timeLoss="1.91" speed="6.64" speedRelative="0.80" departed="0" arrived="0" entered="1" left="1" laneChangedFrom="0" laneChangedTo="0" flow="19.41"/>
        <edge id="23490810#1" sampledSeconds="32.55" traveltime="7.82" overlapTraveltime="8.47" density="2.96" overlapDensity="3.08" laneDensity="2.96" occupancy="1.44" waitingTime="0.00" timeLoss="2.79" speed="7.26" speedRelative="0.87" departed="0" arrived="4" entered="4" left="0" laneChangedFrom="0" laneChangedTo="0" flow="77.34"/>
        <edge id="28378604" sampledSeconds="120.19" traveltime="38.81" overlapTraveltime="40.06" density="6.51" overlapDensity="6.72" laneDensity="6.51" occupancy="3.28" waitingTime="65.00" timeLoss="82.18" speed="2.51" speedRelative="0.30" departed="0" arrived="0" entered="3" left="3" laneChangedFrom="0" laneChangedTo="0" flow="58.87"/>
        <edge id="317948763" sampledSeconds="12.82" traveltime="11.17" overlapTraveltime="12.82" density="0.79" overlapDensity="0.91" laneDensity="0.79" occupancy="0.40" waitingTime="0.00" timeLoss="2.10" speed="6.27" speedRelative="0.75" departed="0" arrived="0" entered="1" left="1" laneChangedFrom="0" laneChangedTo="0" flow="17.88"/>
        <edge id="495683152" sampledSeconds="5.29" traveltime="5.01" overlapTraveltime="6.09" density="0.68" overlapDensity="0.85" laneDensity="0.68" occupancy="0.38" waitingTime="0.00" timeLoss="0.51" speed="6.31" speedRelative="0.76" departed="1" arrived="0" entered="0" left="1" laneChangedFrom="0" laneChangedTo="0" flow="15.41"/>
        <edge id="5218604" sampledSeconds="26.56" traveltime="25.18" overlapTraveltime="26.56" density="2.07" overlapDensity="2.19" laneDensity="2.07" occupancy="1.06" waitingTime="13.00" timeLoss="17.41" speed="2.63" speedRelative="0.32" departed="0" arrived="0" entered="1" left="1" laneChangedFrom="0" laneChangedTo="0" flow="19.66"/>
    </interval>
</meandata>
