<?xml version="1.0" encoding="UTF-8"?>

<!-- generated on 2026-01-18T21:22:35.539661+01:00 by Eclipse SUMO GUI 1.25.0
<sumoConfiguration xmlns:xsi="http://www.w3.org/2001/XMLSchema-instance" xsi:noNamespaceSchemaLocation="http://sumo.dlr.de/xsd/sumoConfiguration.xsd">

    <input>
        <net-file value="SumoConfig/osm.net.xml.gz"/>
        <route-files value="SumoConfig/osm.passenger.trips.xml"/>
        <additional-files value="SumoConfig/osm.poly.xml.gz,SumoConfig/output.add.xml"/>
    </input>

    <output>
        <tripinfo-output value="SumoConfig/tripinfos.xml"/>
        <statistic-output value="SumoConfig/stats.xml"/>
    </output>

    <processing>
        <ignore-route-errors value="true"/>
        <tls.actuated.jam-threshold value="30"/>
    </processing>

    <routing>
        <device.rerouting.adaptation-steps value="18"/>
        <device.rerouting.adaptation-interval value="10"/>
    </routing>

    <report>
        <verbose value="true"/>
        <duration-log.statistics value="true"/>
        <no-step-log value="true"/>
    </report>

    <traci_server>
        <remote-port value="52909"/>
    </traci_server>

    <gui_only>
        <gui-settings-file value="SumoConfig/osm.view.xml"/>
        <start value="true"/>
    </gui_only>

</sumoConfiguration>
-->

<meandata xmlns:xsi="http://www.w3.org/2001/XMLSchema-instance" xsi:noNamespaceSchemaLocation="http://sumo.dlr.de/xsd/meandata_file.xsd">
    <interval begin="0.00" end="9.00" id="wizard_example">
        <edge id="-23490810#0" sampledSeconds="0.19" traveltime="9.04" overlapTraveltime="9.61" density="0.26" overlapDensity="0.26" laneDensity="0.26" occupancy="0.02" waitingTime="0.00" timeLoss="0.00" speed="8.75" speedRelative="1.05" departed="0" arrived="0" entered="1" left="0" laneChangedFrom="0" laneChangedTo="0" flow="8.31"/>
        <edge id="-23490810#1" sampledSeconds="7.13" traveltime="7.18" overlapTraveltime="7.76" density="12.55" overlapDensity="13.68" laneDensity="12.55" occupancy="6.56" waitingTime="0.00" timeLoss="0.58" speed="8.11" speedRelative="0.97" departed="1" arrived="0" entered="0" left="1" laneChangedFrom="0" laneChangedTo="0" flow="366.46"/>
        <edge id="-28378604" sampledSeconds="1.69" traveltime="6.72" overlapTraveltime="7.07" density="1.97" overlapDensity="1.97" laneDensity="1.97" occupancy="0.88" waitingTime="0.00" timeLoss="0.09" speed="14.19" speedRelative="1.70" departed="0" arrived="0" entered="1" left="0" laneChangedFrom="0" laneChangedTo="0" flow="100.41"/>
        <edge id="-317948763" sampledSeconds="9.00" traveltime="5.27" overlapTraveltime="5.62" density="13.27" overlapDensity="13.27" laneDensity="13.27" occupancy="6.25" waitingTime="0.00" timeLoss="0.41" speed="14.31" speedRelative="1.72" departed="3" arrived="0" entered="0" left="0" laneChangedFrom="0" laneChangedTo="0" flow="683.65"/>
        <edge id="-495683152" sampledSeconds="0.00" departed="0" arrived="0" entered="0" left="0" laneChangedFrom="0" laneChangedTo="0"/>
        <edge id="-5218604" sampledSeconds="4.75" traveltime="4.85" overlapTraveltime="5.22" density="4.87" laneDensity="4.87" occupancy="2.31" waitingTime="0.00" timeLoss="0.50" speed="13.43" speedRelative="1.61" departed="0" arrived="0" entered="1" left="0" laneChangedFrom="0" laneChangedTo="0"/>
        <edge id="23490810#0" sampledSeconds="0.00" departed="0" arrived="0" entered="0" left="0" laneChangedFrom="0" laneChangedTo="0"/>
        <edge id="23490810#1" sampledSeconds="8.00" traveltime="4.41" overlapTraveltime="4.95" density="14.91" overlapDensity="15.73" laneDensity="14.91" occupancy="7.44" waitingTime="0.00" timeLoss="0.90" speed="12.43" speedRelative="1.49" departed="3" arrived="0" entered="0" left="1" laneChangedFrom="0" laneChangedTo="0" flow="667.46"/>
        <edge id="28378604" sampledSeconds="0.00" departed="0" arrived="0" entered="0" left="0" laneChangedFrom="0" laneChangedTo="0"/>
        <edge id="317948763" sampledSeconds="0.00" departed="0" arrived="0" entered="0" left="0" laneChangedFrom="0" laneChangedTo="0"/>
        <edge id="495683152" sampledSeconds="6.36" traveltime="2.32" overlapTraveltime="2.67" density="18.86" overlapDensity="21.15" laneDensity="18.86" occupancy="9.14" waitingTime="0.00" timeLoss="0.25" speed="14.42" speedRelative="1.73" departed="3" arrived="0" entered="0" left="2" laneChangedFrom="0" laneChangedTo="0" flow="979.35"/>
        <edge id="5218604" sampledSeconds="9.00" traveltime="4.60" overlapTraveltime="4.99" density="14.77" overlapDensity="15.41" laneDensity="14.77" occupancy="7.13" waitingTime="0.00" timeLoss="0.39" speed="14.01" speedRelative="1.68" departed="3" arrived="0" entered="0" left="1" laneChangedFrom="0" laneChangedTo="0" flow="745.11"/>
    </interval>
</meandata>
