<?xml version="1.0" encoding="UTF-8"?>

<!-- generated on 2025-12-14T23:05:46.032364+01:00 by Eclipse SUMO GUI 1.25.0
<sumoConfiguration xmlns:xsi="http://www.w3.org/2001/XMLSchema-instance" xsi:noNamespaceSchemaLocation="http://sumo.dlr.de/xsd/sumoConfiguration.xsd">

    <input>
        <net-file value="SumoConfig/osm.net.xml.gz"/>
        <route-files value="SumoConfig/osm.passenger.trips.xml"/>
        <additional-files value="SumoConfig/osm.poly.xml.gz,SumoConfig/output.add.xml"/>
    </input>

    <output>
        <tripinfo-output value="SumoConfig/tripinfos.xml"/>
        <statistic-output value="SumoConfig/stats.xml"/>
    </output>

    <processing>
        <ignore-route-errors value="true"/>
        <tls.actuated.jam-threshold value="30"/>
    </processing>

    <routing>
        <device.rerouting.adaptation-steps value="18"/>
        <device.rerouting.adaptation-interval value="10"/>
    </routing>

    <report>
        <verbose value="true"/>
        <duration-log.statistics value="true"/>
        <no-step-log value="true"/>
    </report>

    <traci_server>
        <remote-port value="52725"/>
    </traci_server>

    <gui_only>
        <gui-settings-file value="SumoConfig/osm.view.xml"/>
        <start value="true"/>
    </gui_only>

</sumoConfiguration>
-->

<tripinfos xmlns:xsi="http://www.w3.org/2001/XMLSchema-instance" xsi:noNamespaceSchemaLocation="http://sumo.dlr.de/xsd/tripinfo_file.xsd">
    <tripinfo id="ourVehicle1" depart="97.00" departLane="495683152_0" departPos="0.00" departSpeed="15.00" departDelay="0.00" arrival="332.00" arrivalLane="5218604_0" arrivalPos="64.89" arrivalSpeed="1.00" duration="235.00" routeLength="177.15" waitingTime="72.00" waitingCount="2" stopTime="0.00" timeLoss="222.66" rerouteNo="0" devices="tripinfo_ourVehicle1" vType="DEFAULT_VEHTYPE" speedFactor="1.80" vaporized=""/>
    <tripinfo id="ourVehicle3" depart="147.00" departLane="495683152_0" departPos="0.00" departSpeed="15.00" departDelay="31.00" arrival="368.00" arrivalLane="317948763_0" arrivalPos="75.38" arrivalSpeed="1.00" duration="221.00" routeLength="221.34" waitingTime="14.00" waitingCount="1" stopTime="0.00" timeLoss="206.01" rerouteNo="0" devices="tripinfo_ourVehicle3" vType="DEFAULT_VEHTYPE" speedFactor="1.80" vaporized=""/>
    <tripinfo id="ourVehicle4" depart="127.00" departLane="5218604_0" departPos="0.00" departSpeed="15.00" departDelay="9.00" arrival="408.00" arrivalLane="317948763_0" arrivalPos="75.38" arrivalSpeed="1.00" duration="281.00" routeLength="247.50" waitingTime="48.00" waitingCount="1" stopTime="0.00" timeLoss="264.06" rerouteNo="0" devices="tripinfo_ourVehicle4" vType="DEFAULT_VEHTYPE" speedFactor="1.80" vaporized=""/>
    <tripinfo id="ourVehicle2" depart="123.00" departLane="495683152_0" departPos="0.00" departSpeed="15.00" departDelay="13.00" arrival="414.00" arrivalLane="5218604_0" arrivalPos="64.89" arrivalSpeed="1.00" duration="291.00" routeLength="177.15" waitingTime="127.00" waitingCount="3" stopTime="0.00" timeLoss="278.62" rerouteNo="0" devices="tripinfo_ourVehicle2" vType="DEFAULT_VEHTYPE" speedFactor="1.80" vaporized=""/>
    <tripinfo id="ourVehicle5" depart="153.00" departLane="5218604_0" departPos="0.00" departSpeed="15.00" departDelay="34.00" arrival="416.00" arrivalLane="317948763_0" arrivalPos="75.38" arrivalSpeed="1.00" duration="263.00" routeLength="247.50" waitingTime="30.00" waitingCount="1" stopTime="0.00" timeLoss="246.11" rerouteNo="0" devices="tripinfo_ourVehicle5" vType="DEFAULT_VEHTYPE" speedFactor="1.80" vaporized=""/>
    <tripinfo id="ourVehicle10" depart="179.00" departLane="5218604_0" departPos="0.00" departSpeed="15.00" departDelay="53.00" arrival="425.00" arrivalLane="317948763_0" arrivalPos="75.38" arrivalSpeed="1.00" duration="246.00" routeLength="247.50" waitingTime="13.00" waitingCount="1" stopTime="0.00" timeLoss="229.06" rerouteNo="0" devices="tripinfo_ourVehicle10" vType="DEFAULT_VEHTYPE" speedFactor="1.80" vaporized=""/>
    <tripinfo id="ourVehicle7" depart="188.00" departLane="495683152_0" departPos="0.00" departSpeed="15.00" departDelay="66.00" arrival="439.00" arrivalLane="5218604_0" arrivalPos="64.89" arrivalSpeed="1.00" duration="251.00" routeLength="177.15" waitingTime="88.00" waitingCount="3" stopTime="0.00" timeLoss="238.65" rerouteNo="0" devices="tripinfo_ourVehicle7" vType="DEFAULT_VEHTYPE" speedFactor="1.80" vaporized=""/>
    <tripinfo id="ourVehicle14" depart="214.00" departLane="495683152_0" departPos="0.00" departSpeed="15.00" departDelay="83.00" arrival="458.00" arrivalLane="317948763_0" arrivalPos="75.38" arrivalSpeed="1.00" duration="244.00" routeLength="221.34" waitingTime="37.00" waitingCount="1" stopTime="0.00" timeLoss="229.01" rerouteNo="0" devices="tripinfo_ourVehicle14" vType="DEFAULT_VEHTYPE" speedFactor="1.80" vaporized=""/>
    <tripinfo id="veh1" depart="10.00" departLane="-23490810#1_0" departPos="5.10" departSpeed="5.16" departDelay="0.00" arrival="475.00" arrivalLane="23490810#1_0" arrivalPos="56.51" arrivalSpeed="1.00" duration="465.00" routeLength="464.23" waitingTime="0.00" waitingCount="0" stopTime="0.00" timeLoss="404.49" rerouteNo="1" devices="tripinfo_veh1 routing_veh1" vType="veh_passenger" speedFactor="0.94" vaporized=""/>
    <tripinfo id="ourVehicle15" depart="278.00" departLane="495683152_0" departPos="0.00" departSpeed="15.00" departDelay="145.00" arrival="485.00" arrivalLane="317948763_0" arrivalPos="75.38" arrivalSpeed="1.00" duration="207.00" routeLength="221.34" waitingTime="0.00" waitingCount="0" stopTime="0.00" timeLoss="192.05" rerouteNo="0" devices="tripinfo_ourVehicle15" vType="DEFAULT_VEHTYPE" speedFactor="1.80" vaporized=""/>
    <tripinfo id="ourVehicle0" depart="86.00" departLane="23490810#1_0" departPos="0.00" departSpeed="15.00" departDelay="4.00" arrival="498.00" arrivalLane="317948763_0" arrivalPos="75.38" arrivalSpeed="1.00" duration="412.00" routeLength="379.50" waitingTime="47.00" waitingCount="1" stopTime="0.00" timeLoss="385.80" rerouteNo="0" devices="tripinfo_ourVehicle0" vType="DEFAULT_VEHTYPE" speedFactor="1.80" vaporized=""/>
    <tripinfo id="ourVehicle8" depart="123.00" departLane="23490810#1_0" departPos="0.00" departSpeed="15.00" departDelay="0.00" arrival="507.00" arrivalLane="317948763_0" arrivalPos="75.38" arrivalSpeed="1.00" duration="384.00" routeLength="379.50" waitingTime="18.00" waitingCount="1" stopTime="0.00" timeLoss="357.84" rerouteNo="0" devices="tripinfo_ourVehicle8" vType="DEFAULT_VEHTYPE" speedFactor="1.80" vaporized=""/>
    <tripinfo id="ourVehicle16" depart="304.00" departLane="495683152_0" departPos="0.00" departSpeed="15.00" departDelay="170.00" arrival="521.00" arrivalLane="5218604_0" arrivalPos="64.89" arrivalSpeed="1.00" duration="217.00" routeLength="177.15" waitingTime="53.00" waitingCount="2" stopTime="0.00" timeLoss="204.63" rerouteNo="0" devices="tripinfo_ourVehicle16" vType="DEFAULT_VEHTYPE" speedFactor="1.80" vaporized=""/>
    <tripinfo id="ourVehicle9" depart="149.00" departLane="23490810#1_0" departPos="0.00" departSpeed="15.00" departDelay="24.00" arrival="524.00" arrivalLane="317948763_0" arrivalPos="75.38" arrivalSpeed="1.00" duration="375.00" routeLength="379.50" waitingTime="9.00" waitingCount="1" stopTime="0.00" timeLoss="348.84" rerouteNo="0" devices="tripinfo_ourVehicle9" vType="DEFAULT_VEHTYPE" speedFactor="1.80" vaporized=""/>
    <tripinfo id="ourVehicle12" depart="175.00" departLane="23490810#1_0" departPos="0.00" departSpeed="15.00" departDelay="46.00" arrival="588.00" arrivalLane="317948763_0" arrivalPos="75.38" arrivalSpeed="1.00" duration="413.00" routeLength="379.50" waitingTime="48.00" waitingCount="1" stopTime="0.00" timeLoss="386.77" rerouteNo="0" devices="tripinfo_ourVehicle12" vType="DEFAULT_VEHTYPE" speedFactor="1.80" vaporized=""/>
    <tripinfo id="ourVehicle6" depart="121.00" departLane="-317948763_0" departPos="0.00" departSpeed="15.00" departDelay="0.00" arrival="594.00" arrivalLane="5218604_0" arrivalPos="64.89" arrivalSpeed="1.00" duration="473.00" routeLength="328.24" waitingTime="156.00" waitingCount="4" stopTime="0.00" timeLoss="450.49" rerouteNo="0" devices="tripinfo_ourVehicle6" vType="DEFAULT_VEHTYPE" speedFactor="1.80" vaporized=""/>
    <tripinfo id="ourVehicle24" depart="339.00" departLane="495683152_0" departPos="0.00" departSpeed="15.00" departDelay="194.00" arrival="602.00" arrivalLane="5218604_0" arrivalPos="64.89" arrivalSpeed="1.00" duration="263.00" routeLength="177.15" waitingTime="98.00" waitingCount="4" stopTime="0.00" timeLoss="250.66" rerouteNo="0" devices="tripinfo_ourVehicle24" vType="DEFAULT_VEHTYPE" speedFactor="1.80" vaporized=""/>
    <tripinfo id="ourVehicle17" depart="201.00" departLane="23490810#1_0" departPos="0.00" departSpeed="15.00" departDelay="66.00" arrival="605.00" arrivalLane="317948763_0" arrivalPos="75.38" arrivalSpeed="1.00" duration="404.00" routeLength="379.50" waitingTime="39.00" waitingCount="1" stopTime="0.00" timeLoss="377.77" rerouteNo="0" devices="tripinfo_ourVehicle17" vType="DEFAULT_VEHTYPE" speedFactor="1.80" vaporized=""/>
    <tripinfo id="ourVehicle22" depart="233.00" departLane="23490810#1_0" departPos="0.00" departSpeed="15.00" departDelay="91.00" arrival="613.00" arrivalLane="317948763_0" arrivalPos="75.38" arrivalSpeed="1.00" duration="380.00" routeLength="379.50" waitingTime="15.00" waitingCount="1" stopTime="0.00" timeLoss="353.82" rerouteNo="0" devices="tripinfo_ourVehicle22" vType="DEFAULT_VEHTYPE" speedFactor="1.80" vaporized=""/>
    <tripinfo id="ourVehicle31" depart="432.00" departLane="495683152_0" departPos="0.00" departSpeed="15.00" departDelay="48.00" arrival="639.00" arrivalLane="317948763_0" arrivalPos="75.38" arrivalSpeed="1.00" duration="207.00" routeLength="221.34" waitingTime="0.00" waitingCount="0" stopTime="0.00" timeLoss="192.05" rerouteNo="0" devices="tripinfo_ourVehicle31" vType="DEFAULT_VEHTYPE" speedFactor="1.80" vaporized=""/>
    <tripinfo id="veh0" depart="0.00" departLane="-23490810#1_0" departPos="5.10" departSpeed="8.83" departDelay="0.00" arrival="654.00" arrivalLane="23490810#1_0" arrivalPos="56.51" arrivalSpeed="1.00" duration="654.00" routeLength="474.35" waitingTime="179.00" waitingCount="7" stopTime="0.00" timeLoss="599.25" rerouteNo="1" devices="tripinfo_veh0 routing_veh0" vType="veh_passenger" speedFactor="1.06" vaporized=""/>
    <tripinfo id="veh3" depart="30.00" departLane="-23490810#1_0" departPos="5.10" departSpeed="7.81" departDelay="0.00" arrival="663.00" arrivalLane="23490810#1_0" arrivalPos="56.51" arrivalSpeed="1.00" duration="633.00" routeLength="474.35" waitingTime="157.00" waitingCount="6" stopTime="0.00" timeLoss="571.09" rerouteNo="1" devices="tripinfo_veh3 routing_veh3" vType="veh_passenger" speedFactor="0.94" vaporized=""/>
    <tripinfo id="ourVehicle25" depart="259.00" departLane="23490810#1_0" departPos="0.00" departSpeed="15.00" departDelay="113.00" arrival="678.00" arrivalLane="317948763_0" arrivalPos="75.38" arrivalSpeed="1.00" duration="419.00" routeLength="379.50" waitingTime="53.00" waitingCount="3" stopTime="0.00" timeLoss="392.80" rerouteNo="0" devices="tripinfo_ourVehicle25" vType="DEFAULT_VEHTYPE" speedFactor="1.80" vaporized=""/>
    <tripinfo id="ourVehicle28" depart="365.00" departLane="495683152_0" departPos="0.00" departSpeed="15.00" departDelay="215.00" arrival="684.00" arrivalLane="5218604_0" arrivalPos="64.89" arrivalSpeed="1.00" duration="319.00" routeLength="177.15" waitingTime="153.00" waitingCount="5" stopTime="0.00" timeLoss="306.63" rerouteNo="0" devices="tripinfo_ourVehicle28" vType="DEFAULT_VEHTYPE" speedFactor="1.80" vaporized=""/>
    <tripinfo id="ourVehicle26" depart="285.00" departLane="23490810#1_0" departPos="0.00" departSpeed="15.00" departDelay="137.00" arrival="687.00" arrivalLane="317948763_0" arrivalPos="75.38" arrivalSpeed="1.00" duration="402.00" routeLength="379.50" waitingTime="30.00" waitingCount="2" stopTime="0.00" timeLoss="375.84" rerouteNo="0" devices="tripinfo_ourVehicle26" vType="DEFAULT_VEHTYPE" speedFactor="1.80" vaporized=""/>
    <tripinfo id="ourVehicle27" depart="311.00" departLane="23490810#1_0" departPos="0.00" departSpeed="15.00" departDelay="162.00" arrival="695.00" arrivalLane="317948763_0" arrivalPos="75.38" arrivalSpeed="1.00" duration="384.00" routeLength="379.50" waitingTime="12.00" waitingCount="2" stopTime="0.00" timeLoss="357.80" rerouteNo="0" devices="tripinfo_ourVehicle27" vType="DEFAULT_VEHTYPE" speedFactor="1.80" vaporized=""/>
    <tripinfo id="veh2" depart="20.00" departLane="495683152_0" departPos="5.10" departSpeed="7.38" departDelay="0.00" arrival="766.00" arrivalLane="23490810#1_0" arrivalPos="56.51" arrivalSpeed="1.00" duration="746.00" routeLength="526.03" waitingTime="216.00" waitingCount="9" stopTime="0.00" timeLoss="673.05" rerouteNo="1" devices="tripinfo_veh2 routing_veh2" vType="veh_passenger" speedFactor="0.89" vaporized=""/>
    <tripinfo id="ourVehicle30" depart="382.00" departLane="23490810#1_0" departPos="0.00" departSpeed="15.00" departDelay="0.00" arrival="768.00" arrivalLane="317948763_0" arrivalPos="75.38" arrivalSpeed="1.00" duration="386.00" routeLength="379.50" waitingTime="21.00" waitingCount="1" stopTime="0.00" timeLoss="359.80" rerouteNo="0" devices="tripinfo_ourVehicle30" vType="DEFAULT_VEHTYPE" speedFactor="1.80" vaporized=""/>
    <tripinfo id="ourVehicle29" depart="408.00" departLane="495683152_0" departPos="0.00" departSpeed="15.00" departDelay="256.00" arrival="774.00" arrivalLane="5218604_0" arrivalPos="64.89" arrivalSpeed="1.00" duration="366.00" routeLength="177.15" waitingTime="200.00" waitingCount="5" stopTime="0.00" timeLoss="353.63" rerouteNo="0" devices="tripinfo_ourVehicle29" vType="DEFAULT_VEHTYPE" speedFactor="1.80" vaporized=""/>
    <tripinfo id="ourVehicle33" depart="458.00" departLane="495683152_0" departPos="0.00" departSpeed="15.00" departDelay="71.00" arrival="791.00" arrivalLane="5218604_0" arrivalPos="64.89" arrivalSpeed="1.00" duration="333.00" routeLength="177.15" waitingTime="166.00" waitingCount="6" stopTime="0.00" timeLoss="320.63" rerouteNo="0" devices="tripinfo_ourVehicle33" vType="DEFAULT_VEHTYPE" speedFactor="1.80" vaporized=""/>
    <tripinfo id="ourVehicle11" depart="262.00" departLane="-317948763_0" departPos="0.00" departSpeed="15.00" departDelay="134.00" arrival="799.00" arrivalLane="5218604_0" arrivalPos="64.89" arrivalSpeed="1.00" duration="537.00" routeLength="328.24" waitingTime="218.00" waitingCount="9" stopTime="0.00" timeLoss="514.54" rerouteNo="0" devices="tripinfo_ourVehicle11" vType="DEFAULT_VEHTYPE" speedFactor="1.80" vaporized=""/>
    <tripinfo id="ourVehicle47" depart="459.00" departLane="23490810#1_0" departPos="0.00" departSpeed="15.00" departDelay="54.00" arrival="858.00" arrivalLane="317948763_0" arrivalPos="75.38" arrivalSpeed="1.00" duration="399.00" routeLength="379.50" waitingTime="34.00" waitingCount="1" stopTime="0.00" timeLoss="372.80" rerouteNo="0" devices="tripinfo_ourVehicle47" vType="DEFAULT_VEHTYPE" speedFactor="1.80" vaporized=""/>
    <tripinfo id="ourVehicle43" depart="501.00" departLane="495683152_0" departPos="0.00" departSpeed="15.00" departDelay="101.00" arrival="864.00" arrivalLane="5218604_0" arrivalPos="64.89" arrivalSpeed="1.00" duration="363.00" routeLength="177.15" waitingTime="197.00" waitingCount="7" stopTime="0.00" timeLoss="350.63" rerouteNo="0" devices="tripinfo_ourVehicle43" vType="DEFAULT_VEHTYPE" speedFactor="1.80" vaporized=""/>
    <tripinfo id="ourVehicle48" depart="492.00" departLane="23490810#1_0" departPos="0.00" departSpeed="15.00" departDelay="86.00" arrival="875.00" arrivalLane="317948763_0" arrivalPos="75.38" arrivalSpeed="1.00" duration="383.00" routeLength="379.50" waitingTime="18.00" waitingCount="1" stopTime="0.00" timeLoss="356.80" rerouteNo="0" devices="tripinfo_ourVehicle48" vType="DEFAULT_VEHTYPE" speedFactor="1.80" vaporized=""/>
</tripinfos>
