<?xml version="1.0" encoding="UTF-8"?>

<!-- generated on 2025-12-14 23:35:31 by Eclipse SUMO GUI Version 1.24.0
<sumoConfiguration xmlns:xsi="http://www.w3.org/2001/XMLSchema-instance" xsi:noNamespaceSchemaLocation="http://sumo.dlr.de/xsd/sumoConfiguration.xsd">

    <input>
        <net-file value="SumoConfig/osm.net.xml.gz"/>
        <route-files value="SumoConfig/osm.passenger.trips.xml"/>
        <additional-files value="SumoConfig/osm.poly.xml.gz,SumoConfig/output.add.xml"/>
    </input>

    <output>
        <tripinfo-output value="SumoConfig/tripinfos.xml"/>
        <statistic-output value="SumoConfig/stats.xml"/>
    </output>

    <processing>
        <ignore-route-errors value="true"/>
        <tls.actuated.jam-threshold value="30"/>
    </processing>

    <routing>
        <device.rerouting.adaptation-steps value="18"/>
        <device.rerouting.adaptation-interval value="10"/>
    </routing>

    <report>
        <verbose value="true"/>
        <duration-log.statistics value="true"/>
        <no-step-log value="true"/>
    </report>

    <traci_server>
        <remote-port value="51191"/>
    </traci_server>

    <gui_only>
        <gui-settings-file value="SumoConfig/osm.view.xml"/>
        <start value="true"/>
    </gui_only>

</sumoConfiguration>
-->

<tripinfos xmlns:xsi="http://www.w3.org/2001/XMLSchema-instance" xsi:noNamespaceSchemaLocation="http://sumo.dlr.de/xsd/tripinfo_file.xsd">
    <tripinfo id="ourVehicle2" depart="129.00" departLane="495683152_0" departPos="0.00" departSpeed="15.00" departDelay="0.00" arrival="368.00" arrivalLane="317948763_0" arrivalPos="75.38" arrivalSpeed="1.00" duration="239.00" routeLength="221.34" waitingTime="32.00" waitingCount="1" stopTime="0.00" timeLoss="224.01" rerouteNo="0" devices="tripinfo_ourVehicle2" vType="DEFAULT_VEHTYPE" speedFactor="1.80" vaporized=""/>
    <tripinfo id="ourVehicle3" depart="188.00" departLane="495683152_0" departPos="0.00" departSpeed="15.00" departDelay="57.00" arrival="395.00" arrivalLane="317948763_0" arrivalPos="75.38" arrivalSpeed="1.00" duration="207.00" routeLength="221.34" waitingTime="0.00" waitingCount="0" stopTime="0.00" timeLoss="192.05" rerouteNo="0" devices="tripinfo_ourVehicle3" vType="DEFAULT_VEHTYPE" speedFactor="1.80" vaporized=""/>
    <tripinfo id="ourVehicle1" depart="128.00" departLane="5218604_0" departPos="0.00" departSpeed="15.00" departDelay="0.00" arrival="408.00" arrivalLane="317948763_0" arrivalPos="75.38" arrivalSpeed="1.00" duration="280.00" routeLength="247.50" waitingTime="47.00" waitingCount="1" stopTime="0.00" timeLoss="263.09" rerouteNo="0" devices="tripinfo_ourVehicle1" vType="DEFAULT_VEHTYPE" speedFactor="1.80" vaporized=""/>
    <tripinfo id="ourVehicle15" depart="166.00" departLane="5218604_0" departPos="0.00" departSpeed="15.00" departDelay="0.00" arrival="417.00" arrivalLane="317948763_0" arrivalPos="75.38" arrivalSpeed="1.00" duration="251.00" routeLength="247.50" waitingTime="17.00" waitingCount="1" stopTime="0.00" timeLoss="234.13" rerouteNo="0" devices="tripinfo_ourVehicle15" vType="DEFAULT_VEHTYPE" speedFactor="1.80" vaporized=""/>
    <tripinfo id="ourVehicle17" depart="192.00" departLane="5218604_0" departPos="0.00" departSpeed="15.00" departDelay="22.00" arrival="425.00" arrivalLane="317948763_0" arrivalPos="75.38" arrivalSpeed="1.00" duration="233.00" routeLength="247.50" waitingTime="0.00" waitingCount="0" stopTime="0.00" timeLoss="216.09" rerouteNo="0" devices="tripinfo_ourVehicle17" vType="DEFAULT_VEHTYPE" speedFactor="1.80" vaporized=""/>
    <tripinfo id="ourVehicle5" depart="212.00" departLane="495683152_0" departPos="0.00" departSpeed="15.00" departDelay="78.00" arrival="431.00" arrivalLane="5218604_0" arrivalPos="64.89" arrivalSpeed="1.00" duration="219.00" routeLength="177.15" waitingTime="55.00" waitingCount="2" stopTime="0.00" timeLoss="206.63" rerouteNo="0" devices="tripinfo_ourVehicle5" vType="DEFAULT_VEHTYPE" speedFactor="1.80" vaporized=""/>
    <tripinfo id="ourVehicle12" depart="236.00" departLane="495683152_0" departPos="0.00" departSpeed="15.00" departDelay="91.00" arrival="458.00" arrivalLane="317948763_0" arrivalPos="75.38" arrivalSpeed="1.00" duration="222.00" routeLength="221.34" waitingTime="15.00" waitingCount="1" stopTime="0.00" timeLoss="207.01" rerouteNo="0" devices="tripinfo_ourVehicle12" vType="DEFAULT_VEHTYPE" speedFactor="1.80" vaporized=""/>
 </tripinfos>
d="veh1" depart="10.00" departLane="-23490810#1_0" departPos="5.10" departSpeed="5.16" departDelay="0.00" arrival="475.00" arrivalLane="23490810#1_0" arrivalPos="56.51" arrivalSpeed="1.00" duration="465.00" routeLength="464.23" waitingTime="0.00" waitingCount="0" stopTime="0.00" timeLoss="404.49" rerouteNo="1" devices="tripinfo_veh1 routing_veh1" vType="veh_passenger" speedFactor="0.94" vaporized=""/>
    <tripinfo id="ourVehicle18" depart="218.00" departLane="5218604_0" departPos="0.00" departSpeed="15.00" departDelay="46.00" arrival="498.00" arrivalLane="317948763_0" arrivalPos="75.38" arrivalSpeed="1.00" duration="280.00" routeLength="247.50" waitingTime="47.00" waitingCount="1" stopTime="0.00" timeLoss="263.09" rerouteNo="0" devices="tripinfo_ourVehicle18" vType="DEFAULT_VEHTYPE" speedFactor="1.80" vaporized=""/>
    <tripinfo id="ourVehicle0" depart="126.00" departLane="23490810#1_0" departPos="0.00" departSpeed="15.00" departDelay="0.00" arrival="507.00" arrivalLane="317948763_0" arrivalPos="75.38" arrivalSpeed="1.00" duration="381.00" routeLength="379.50" waitingTime="15.00" waitingCount="1" stopTime="0.00" timeLoss="354.84" rerouteNo="0" devices="tripinfo_ourVehicle0" vType="DEFAULT_VEHTYPE" speedFactor="1.80" vaporized=""/>
    <tripinfo id="ourVehicle13" depart="276.00" departLane="495683152_0" departPos="0.00" departSpeed="15.00" departDelay="113.00" arrival="512.00" arrivalLane="5218604_0" arrivalPos="64.89" arrivalSpeed="1.00" duration="236.00" routeLength="177.15" waitingTime="72.00" waitingCount="1" stopTime="0.00" timeLoss="223.63" rerouteNo="0" devices="tripinfo_ourVehicle13" vType="DEFAULT_VEHTYPE" speedFactor="1.80" vaporized=""/>
    <tripinfo id="ourVehicle6" depart="152.00" departLane="23490810#1_0" departPos="0.00" departSpeed="15.00" departDelay="16.00" arrival="517.00" arrivalLane="317948763_0" arrivalPos="75.38" arrivalSpeed="1.00" duration="365.00" routeLength="379.50" waitingTime="0.00" waitingCount="0" stopTime="0.00" timeLoss="338.77" rerouteNo="0" devices="tripinfo_ourVehicle6" vType="DEFAULT_VEHTYPE" speedFactor="1.80" vaporized=""/>
    <tripinfo id="ourVehicle31" depart="352.00" departLane="495683152_0" departPos="0.00" departSpeed="15.00" departDelay="156.00" arrival="559.00" arrivalLane="317948763_0" arrivalPos="75.38" arrivalSpeed="1.00" duration="207.00" routeLength="221.34" waitingTime="0.00" waitingCount="0" stopTime="0.00" timeLoss="192.05" rerouteNo="0" devices="tripinfo_ourVehicle31" vType="DEFAULT_VEHTYPE" speedFactor="1.80" vaporized=""/>
    <tripinfo id="ourVehicle7" depart="178.00" departLane="23490810#1_0" departPos="0.00" departSpeed="15.00" departDelay="41.00" arrival="588.00" arrivalLane="317948763_0" arrivalPos="75.38" arrivalSpeed="1.00" duration="410.00" routeLength="379.50" waitingTime="45.00" waitingCount="1" stopTime="0.00" timeLoss="383.80" rerouteNo="0" devices="tripinfo_ourVehicle7" vType="DEFAULT_VEHTYPE" speedFactor="1.80" vaporized=""/>
    <tripinfo id="ourVehicle23" depart="302.00" departLane="495683152_0" departPos="0.00" departSpeed="15.00" departDelay="121.00" arrival="594.00" arrivalLane="5218604_0" arrivalPos="64.89" arrivalSpeed="1.00" duration="292.00" routeLength="177.15" waitingTime="127.00" waitingCount="3" stopTime="0.00" timeLoss="279.60" rerouteNo="0" devices="tripinfo_ourVehicle23" vType="DEFAULT_VEHTYPE" speedFactor="1.80" vaporized=""/>
    <tripinfo id="ourVehicle9" depart="204.00" departLane="23490810#1_0" departPos="0.00" departSpeed="15.00" departDelay="64.00" arrival="597.00" arrivalLane="317948763_0" arrivalPos="75.38" arrivalSpeed="1.00" duration="393.00" routeLength="379.50" waitingTime="27.00" waitingCount="1" stopTime="0.00" timeLoss="366.84" rerouteNo="0" devices="tripinfo_ourVehicle9" vType="DEFAULT_VEHTYPE" speedFactor="1.80" vaporized=""/>
    <tripinfo id="ourVehicle4" depart="133.00" departLane="-317948763_0" departPos="0.00" departSpeed="15.00" departDelay="0.00" arrival="602.00" arrivalLane="5218604_0" arrivalPos="64.89" arrivalSpeed="1.00" duration="469.00" routeLength="328.24" waitingTime="152.00" waitingCount="5" stopTime="0.00" timeLoss="446.55" rerouteNo="0" devices="tripinfo_ourVehicle4" vType="DEFAULT_VEHTYPE" speedFactor="1.80" vaporized=""/>
    <tripinfo id="ourVehicle10" depart="236.00" departLane="23490810#1_0" departPos="0.00" departSpeed="15.00" departDelay="94.00" arrival="605.00" arrivalLane="317948763_0" arrivalPos="75.38" arrivalSpeed="1.00" duration="369.00" routeLength="379.50" waitingTime="4.00" waitingCount="1" stopTime="0.00" timeLoss="342.80" rerouteNo="0" devices="tripinfo_ourVehicle10" vType="DEFAULT_VEHTYPE" speedFactor="1.80" vaporized=""/>
    <tripinfo id="ourVehicle11" depart="262.00" departLane="23490810#1_0" departPos="0.00" departSpeed="15.00" departDelay="118.00" arrival="628.00" arrivalLane="317948763_0" arrivalPos="75.38" arrivalSpeed="1.00" duration="366.00" routeLength="379.50" waitingTime="1.00" waitingCount="1" stopTime="0.00" timeLoss="339.77" rerouteNo="0" devices="tripinfo_ourVehicle11" vType="DEFAULT_VEHTYPE" speedFactor="1.80" vaporized=""/>
    <tripinfo id="ourVehicle35" depart="426.00" departLane="495683152_0" departPos="0.00" departSpeed="15.00" departDelay="210.00" arrival="638.00" arrivalLane="317948763_0" arrivalPos="75.38" arrivalSpeed="1.00" duration="212.00" routeLength="221.34" waitingTime="5.00" waitingCount="1" stopTime="0.00" timeLoss="197.01" rerouteNo="0" devices="tripinfo_ourVehicle35" vType="DEFAULT_VEHTYPE" speedFactor="1.80" vaporized=""/>
    <tripinfo id="ourVehicle37" depart="458.00" departLane="495683152_0" departPos="0.00" departSpeed="15.00" departDelay="232.00" arrival="665.00" arrivalLane="317948763_0" arrivalPos="75.38" arrivalSpeed="1.00" duration="207.00" routeLength="221.34" waitingTime="0.00" waitingCount="0" stopTime="0.00" timeLoss="192.05" rerouteNo="0" devices="tripinfo_ourVehicle37" vType="DEFAULT_VEHTYPE" speedFactor="1.80" vaporized=""/>
    <tripinfo id="ourVehicle20" depart="288.00" departLane="23490810#1_0" departPos="0.00" departSpeed="15.00" departDelay="113.00" arrival="678.00" arrivalLane="317948763_0" arrivalPos="75.38" arrivalSpeed="1.00" duration="390.00" routeLength="379.50" waitingTime="18.00" waitingCount="1" stopTime="0.00" timeLoss="363.79" rerouteNo="0" devices="tripinfo_ourVehicle20" vType="DEFAULT_VEHTYPE" speedFactor="1.80" vaporized=""/>
    <tripinfo id="ourVehicle24" depart="328.00" departLane="495683152_0" departPos="0.00" departSpeed="15.00" departDelay="145.00" arrival="684.00" arrivalLane="5218604_0" arrivalPos="64.89" arrivalSpeed="1.00" duration="356.00" routeLength="177.15" waitingTime="189.00" waitingCount="5" stopTime="0.00" timeLoss="343.63" rerouteNo="0" devices="tripinfo_ourVehicle24" vType="DEFAULT_VEHTYPE" speedFactor="1.80" vaporized=""/>
    <tripinfo id="ourVehicle21" depart="314.00" departLane="23490810#1_0" departPos="0.00" departSpeed="15.00" departDelay="137.00" arrival="687.00" arrivalLane="317948763_0" arrivalPos="75.38" arrivalSpeed="1.00" duration="373.00" routeLength="379.50" waitingTime="0.00" waitingCount="0" stopTime="0.00" timeLoss="346.84" rerouteNo="0" devices="tripinfo_ourVehicle21" vType="DEFAULT_VEHTYPE" speedFactor="1.80" vaporized=""/>
    <tripinfo id="veh0" depart="0.00" departLane="-23490810#1_0" departPos="5.10" departSpeed="8.83" departDelay="0.00" arrival="706.00" arrivalLane="23490810#1_0" arrivalPos="56.51" arrivalSpeed="1.00" duration="706.00" routeLength="474.35" waitingTime="229.00" waitingCount="8" stopTime="0.00" timeLoss="651.25" rerouteNo="1" devices="tripinfo_veh0 routing_veh0" vType="veh_passenger" speedFactor="1.06" vaporized=""/>
    <tripinfo id="ourVehicle33" depart="376.00" departLane="495683152_0" departPos="0.00" departSpeed="15.00" departDelay="170.00" arrival="709.00" arrivalLane="5218604_0" arrivalPos="64.89" arrivalSpeed="1.00" duration="333.00" routeLength="177.15" waitingTime="166.00" waitingCount="6" stopTime="0.00" timeLoss="320.66" rerouteNo="0" devices="tripinfo_ourVehicle33" vType="DEFAULT_VEHTYPE" speedFactor="1.80" vaporized=""/>
    <tripinfo id="ourVehicle27" depart="346.00" departLane="23490810#1_0" departPos="0.00" departSpeed="15.00" departDelay="158.00" arrival="711.00" arrivalLane="317948763_0" arrivalPos="75.38" arrivalSpeed="1.00" duration="365.00" routeLength="379.50" waitingTime="0.00" waitingCount="0" stopTime="0.00" timeLoss="338.77" rerouteNo="0" devices="tripinfo_ourVehicle27" vType="DEFAULT_VEHTYPE" speedFactor="1.80" vaporized=""/>
    <tripinfo id="veh3" depart="30.00" departLane="-23490810#1_0" departPos="5.10" departSpeed="7.81" departDelay="0.00" arrival="764.00" arrivalLane="23490810#1_0" arrivalPos="56.51" arrivalSpeed="1.00" duration="734.00" routeLength="474.35" waitingTime="258.00" waitingCount="7" stopTime="0.00" timeLoss="672.12" rerouteNo="1" devices="tripinfo_veh3 routing_veh3" vType="veh_passenger" speedFactor="0.94" vaporized=""/>
    <tripinfo id="ourVehicle32" depart="373.00" departLane="23490810#1_0" departPos="0.00" departSpeed="15.00" departDelay="172.00" arrival="768.00" arrivalLane="317948763_0" arrivalPos="75.38" arrivalSpeed="1.00" duration="395.00" routeLength="379.50" waitingTime="30.00" waitingCount="1" stopTime="0.00" timeLoss="368.80" rerouteNo="0" devices="tripinfo_ourVehicle32" vType="DEFAULT_VEHTYPE" speedFactor="1.80" vaporized=""/>
    <tripinfo id="ourVehicle34" depart="402.00" departLane="495683152_0" departPos="0.00" departSpeed="15.00" departDelay="190.00" arrival="782.00" arrivalLane="5218604_0" arrivalPos="64.89" arrivalSpeed="1.00" duration="380.00" routeLength="177.15" waitingTime="215.00" waitingCount="6" stopTime="0.00" timeLoss="367.66" rerouteNo="0" devices="tripinfo_ourVehicle34" vType="DEFAULT_VEHTYPE" speedFactor="1.80" vaporized=""/>
    <tripinfo id="ourVehicle41" depart="482.00" departLane="495683152_0" departPos="0.00" departSpeed="15.00" departDelay="238.00" arrival="812.00" arrivalLane="5218604_0" arrivalPos="64.89" arrivalSpeed="1.00" duration="330.00" routeLength="177.15" waitingTime="165.00" waitingCount="4" stopTime="0.00" timeLoss="317.65" rerouteNo="0" devices="tripinfo_ourVehicle41" vType="DEFAULT_VEHTYPE" speedFactor="1.80" vaporized=""/>
    <tripinfo id="ourVehicle49" depart="596.00" departLane="495683152_0" departPos="0.00" departSpeed="15.00" departDelay="319.00" arrival="818.00" arrivalLane="317948763_0" arrivalPos="75.38" arrivalSpeed="1.00" duration="222.00" routeLength="221.34" waitingTime="15.00" waitingCount="1" stopTime="0.00" timeLoss="207.01" rerouteNo="0" devices="tripinfo_ourVehicle49" vType="DEFAULT_VEHTYPE" speedFactor="1.80" vaporized=""/>
    <tripinfo id="ourVehicle45" depart="509.00" departLane="495683152_0" departPos="0.00" departSpeed="15.00" departDelay="248.00" arrival="836.00" arrivalLane="5218604_0" arrivalPos="64.89" arrivalSpeed="1.00" duration="327.00" routeLength="177.15" waitingTime="163.00" waitingCount="5" stopTime="0.00" timeLoss="314.64" rerouteNo="0" devices="tripinfo_ourVehicle45" vType="DEFAULT_VEHTYPE" speedFactor="1.80" vaporized=""/>
    <tripinfo id="ourVehicle39" depart="459.00" departLane="23490810#1_0" departPos="0.00" departSpeed="15.00" departDelay="224.00" arrival="858.00" arrivalLane="317948763_0" arrivalPos="75.38" arrivalSpeed="1.00" duration="399.00" routeLength="379.50" waitingTime="34.00" waitingCount="1" stopTime="0.00" timeLoss="372.80" rerouteNo="0" devices="tripinfo_ourVehicle39" vType="DEFAULT_VEHTYPE" speedFactor="1.80" vaporized=""/>
    <tripinfo id="ourVehicle40" depart="485.00" departLane="23490810#1_0" departPos="0.00" departSpeed="15.00" departDelay="246.00" arrival="875.00" arrivalLane="317948763_0" arrivalPos="75.38" arrivalSpeed="1.00" duration="390.00" routeLength="379.50" waitingTime="25.00" waitingCount="1" stopTime="0.00" timeLoss="363.80" rerouteNo="0" devices="tripinfo_ourVehicle40" vType="DEFAULT_VEHTYPE" speedFactor="1.80" vaporized=""/>
    <tripinfo id="ourVehicle46" depart="535.00" departLane="495683152_0" departPos="0.00" departSpeed="15.00" departDelay="270.00" arrival="881.00" arrivalLane="5218604_0" arrivalPos="64.89" arrivalSpeed="1.00" duration="346.00" routeLength="177.15" waitingTime="182.00" waitingCount="6" stopTime="0.00" timeLoss="333.64" rerouteNo="0" devices="tripinfo_ourVehicle46" vType="DEFAULT_VEHTYPE" speedFactor="1.80" vaporized=""/>
    <tripinfo id="ourVehicle42" depart="511.00" departLane="23490810#1_0" departPos="0.00" departSpeed="15.00" departDelay="263.00" arrival="884.00" arrivalLane="317948763_0" arrivalPos="75.38" arrivalSpeed="1.00" duration="373.00" routeLength="379.50" waitingTime="7.00" waitingCount="1" stopTime="0.00" timeLoss="346.84" rerouteNo="0" devices="tripinfo_ourVehicle42" vType="DEFAULT_VEHTYPE" speedFactor="1.80" vaporized=""/>
    <tripinfo id="veh2" depart="20.00" departLane="495683152_0" departPos="5.10" departSpeed="7.38" departDelay="0.00" arrival="885.00" arrivalLane="23490810#1_0" arrivalPos="56.51" arrivalSpeed="1.00" duration="865.00" routeLength="526.03" waitingTime="335.00" waitingCount="11" stopTime="0.00" timeLoss="792.05" rerouteNo="1" devices="tripinfo_veh2 routing_veh2" vType="veh_passenger" speedFactor="0.89" vaporized=""/>
    <tripinfo id="ourVehicle51" depart="660.00" departLane="495683152_0" departPos="0.00" departSpeed="15.00" departDelay="377.00" arrival="908.00" arrivalLane="317948763_0" arrivalPos="75.38" arrivalSpeed="1.00" duration="248.00" routeLength="221.34" waitingTime="41.00" waitingCount="1" stopTime="0.00" timeLoss="233.01" rerouteNo="0" devices="tripinfo_ourVehicle51" vType="DEFAULT_VEHTYPE" speedFactor="1.80" vaporized=""/>
    <tripinfo id="ourVehicle52" depart="728.00" departLane="495683152_0" departPos="0.00" departSpeed="15.00" departDelay="442.00" arrival="935.00" arrivalLane="317948763_0" arrivalPos="75.38" arrivalSpeed="1.00" duration="207.00" routeLength="221.34" waitingTime="0.00" waitingCount="0" stopTime="0.00" timeLoss="192.05" rerouteNo="0" devices="tripinfo_ourVehicle52" vType="DEFAULT_VEHTYPE" speedFactor="1.80" vaporized=""/>
    <tripinfo id="ourVehicle44" depart="537.00" departLane="23490810#1_0" departPos="0.00" departSpeed="15.00" departDelay="280.00" arrival="948.00" arrivalLane="317948763_0" arrivalPos="75.38" arrivalSpeed="1.00" duration="411.00" routeLength="379.50" waitingTime="46.00" waitingCount="1" stopTime="0.00" timeLoss="384.80" rerouteNo="0" devices="tripinfo_ourVehicle44" vType="DEFAULT_VEHTYPE" speedFactor="1.80" vaporized=""/>
    <tripinfo id="ourVehicle48" depart="561.00" departLane="495683152_0" departPos="0.00" departSpeed="15.00" departDelay="288.00" arrival="954.00" arrivalLane="5218604_0" arrivalPos="64.89" arrivalSpeed="1.00" duration="393.00" routeLength="177.15" waitingTime="228.00" waitingCount="8" stopTime="0.00" timeLoss="380.63" rerouteNo="0" devices="tripinfo_ourVehicle48" vType="DEFAULT_VEHTYPE" speedFactor="1.80" vaporized=""/>
    <tripinfo id="ourVehicle47" depart="569.00" departLane="23490810#1_0" departPos="0.00" departSpeed="15.00" departDelay="300.00" arrival="957.00" arrivalLane="317948763_0" arrivalPos="75.38" arrivalSpeed="1.00" duration="388.00" routeLength="379.50" waitingTime="22.00" waitingCount="1" stopTime="0.00" timeLoss="361.84" rerouteNo="0" devices="tripinfo_ourVehicle47" vType="DEFAULT_VEHTYPE" speedFactor="1.80" vaporized=""/>
    <tripinfo id="ourVehicle56" depart="595.00" departLane="23490810#1_0" departPos="0.00" departSpeed="15.00" departDelay="300.00" arrival="974.00" arrivalLane="317948763_0" arrivalPos="75.38" arrivalSpeed="1.00" duration="379.00" routeLength="379.50" waitingTime="13.00" waitingCount="1" stopTime="0.00" timeLoss="352.84" rerouteNo="0" devices="tripinfo_ourVehicle56" vType="DEFAULT_VEHTYPE" speedFactor="1.80" vaporized=""/>
    <tripinfo id="ourVehicle65" depart="621.00" departLane="23490810#1_0" departPos="0.00" departSpeed="15.00" departDelay="297.00" arrival="986.00" arrivalLane="317948763_0" arrivalPos="75.38" arrivalSpeed="1.00" duration="365.00" routeLength="379.50" waitingTime="0.00" waitingCount="0" stopTime="0.00" timeLoss="338.77" rerouteNo="0" devices="tripinfo_ourVehicle65" vType="DEFAULT_VEHTYPE" speedFactor="1.80" vaporized=""/>
    <tripinfo id="ourVehicle50" depart="636.00" departLane="495683152_0" departPos="0.00" departSpeed="15.00" departDelay="356.00" arrival="991.00" arrivalLane="5218604_0" arrivalPos="64.89" arrivalSpeed="1.00" duration="355.00" routeLength="177.15" waitingTime="191.00" waitingCount="6" stopTime="0.00" timeLoss="342.64" rerouteNo="0" devices="tripinfo_ourVehicle50" vType="DEFAULT_VEHTYPE" speedFactor="1.80" vaporized=""/>
    <tripinfo id="ourVehicle54" depart="754.00" departLane="495683152_0" departPos="0.00" departSpeed="15.00" departDelay="464.00" arrival="998.00" arrivalLane="317948763_0" arrivalPos="75.38" arrivalSpeed="1.00" duration="244.00" routeLength="221.34" waitingTime="37.00" waitingCount="1" stopTime="0.00" timeLoss="229.01" rerouteNo="0" devices="tripinfo_ourVehicle54" vType="DEFAULT_VEHTYPE" speedFactor="1.80" vaporized=""/>
</tripinfos>
