<?xml version="1.0" encoding="UTF-8"?>

<!-- generated on 2026-01-15 20:27:50 by Eclipse SUMO GUI Version 1.24.0
<sumoConfiguration xmlns:xsi="http://www.w3.org/2001/XMLSchema-instance" xsi:noNamespaceSchemaLocation="http://sumo.dlr.de/xsd/sumoConfiguration.xsd">

    <input>
        <net-file value="SumoConfig/osm.net.xml.gz"/>
        <route-files value="SumoConfig/osm.passenger.trips.xml"/>
        <additional-files value="SumoConfig/osm.poly.xml.gz,SumoConfig/output.add.xml"/>
    </input>

    <output>
        <tripinfo-output value="SumoConfig/tripinfos.xml"/>
        <statistic-output value="SumoConfig/stats.xml"/>
    </output>

    <processing>
        <ignore-route-errors value="true"/>
        <tls.actuated.jam-threshold value="30"/>
    </processing>

    <routing>
        <device.rerouting.adaptation-steps value="18"/>
        <device.rerouting.adaptation-interval value="10"/>
    </routing>

    <report>
        <verbose value="true"/>
        <duration-log.statistics value="true"/>
        <no-step-log value="true"/>
    </report>

    <traci_server>
        <remote-port value="55963"/>
    </traci_server>

    <gui_only>
        <gui-settings-file value="SumoConfig/osm.view.xml"/>
        <start value="true"/>
    </gui_only>

</sumoConfiguration>
-->

<tripinfos xmlns:xsi="http://www.w3.org/2001/XMLSchema-instance" xsi:noNamespaceSchemaLocation="http://sumo.dlr.de/xsd/tripinfo_file.xsd">
    <tripinfo id="ourVehicle0" depart="39.00" departLane="495683152_0" departPos="0.00" departSpeed="15.00" departDelay="0.00" arrival="56.00" arrivalLane="5218604_0" arrivalPos="64.89" arrivalSpeed="14.44" duration="17.00" routeLength="177.15" waitingTime="0.00" waitingCount="0" stopTime="0.00" timeLoss="3.77" rerouteNo="0" devices="tripinfo_ourVehicle0" vType="DEFAULT_VEHTYPE" speedFactor="1.80" vaporized=""/>
    <tripinfo id="ourVehicle8" depart="55.00" departLane="5218604_0" departPos="0.00" departSpeed="15.00" departDelay="0.00" arrival="76.00" arrivalLane="317948763_0" arrivalPos="75.38" arrivalSpeed="10.60" duration="21.00" routeLength="247.50" waitingTime="0.00" waitingCount="0" stopTime="0.00" timeLoss="4.21" rerouteNo="0" devices="tripinfo_ourVehicle8" vType="DEFAULT_VEHTYPE" speedFactor="1.80" vaporized=""/>
    <tripinfo id="ourVehicle2" depart="43.00" departLane="23490810#1_0" departPos="0.00" departSpeed="15.00" departDelay="0.00" arrival="78.00" arrivalLane="317948763_0" arrivalPos="75.38" arrivalSpeed="14.26" duration="35.00" routeLength="379.50" waitingTime="0.00" waitingCount="0" stopTime="0.00" timeLoss="9.06" rerouteNo="0" devices="tripinfo_ourVehicle2" vType="DEFAULT_VEHTYPE" speedFactor="1.80" vaporized=""/>
    <tripinfo id="ourVehicle13" depart="63.00" departLane="5218604_0" departPos="0.00" departSpeed="15.00" departDelay="0.00" arrival="83.00" arrivalLane="317948763_0" arrivalPos="75.38" arrivalSpeed="13.94" duration="20.00" routeLength="247.50" waitingTime="0.00" waitingCount="0" stopTime="0.00" timeLoss="2.44" rerouteNo="0" devices="tripinfo_ourVehicle13" vType="DEFAULT_VEHTYPE" speedFactor="1.80" vaporized=""/>
    <tripinfo id="ourVehicle11" depart="60.00" departLane="23490810#1_0" departPos="0.00" departSpeed="15.00" departDelay="0.00" arrival="93.00" arrivalLane="317948763_0" arrivalPos="75.38" arrivalSpeed="14.04" duration="33.00" routeLength="379.50" waitingTime="0.00" waitingCount="0" stopTime="0.00" timeLoss="6.27" rerouteNo="0" devices="tripinfo_ourVehicle11" vType="DEFAULT_VEHTYPE" speedFactor="1.80" vaporized=""/>
    <tripinfo id="veh1" depart="10.00" departLane="-23490810#1_0" departPos="5.10" departSpeed="7.82" departDelay="0.00" arrival="95.00" arrivalLane="23490810#1_0" arrivalPos="56.51" arrivalSpeed="7.50" duration="85.00" routeLength="464.23" waitingTime="13.00" waitingCount="1" stopTime="0.00" timeLoss="24.21" rerouteNo="1" devices="tripinfo_veh1 routing_veh1" vType="veh_passenger" speedFactor="0.94" vaporized=""/>
    <tripinfo id="ourVehicle19" depart="75.00" departLane="5218604_0" departPos="0.00" departSpeed="15.00" departDelay="2.00" arrival="95.00" arrivalLane="317948763_0" arrivalPos="75.38" arrivalSpeed="14.07" duration="20.00" routeLength="247.50" waitingTime="0.00" waitingCount="0" stopTime="0.00" timeLoss="3.30" rerouteNo="0" devices="tripinfo_ourVehicle19" vType="DEFAULT_VEHTYPE" speedFactor="1.80" vaporized=""/>
    <tripinfo id="ourVehicle1" depart="41.00" departLane="495683152_0" departPos="0.00" departSpeed="15.00" departDelay="0.00" arrival="108.00" arrivalLane="317948763_0" arrivalPos="75.38" arrivalSpeed="14.12" duration="67.00" routeLength="221.34" waitingTime="43.00" waitingCount="1" stopTime="0.00" timeLoss="51.42" rerouteNo="0" devices="tripinfo_ourVehicle1" vType="DEFAULT_VEHTYPE" speedFactor="1.80" vaporized=""/>
    <tripinfo id="ourVehicle4" depart="92.00" departLane="495683152_0" departPos="0.00" departSpeed="15.00" departDelay="46.00" arrival="110.00" arrivalLane="317948763_0" arrivalPos="75.38" arrivalSpeed="14.68" duration="18.00" routeLength="221.34" waitingTime="0.00" waitingCount="0" stopTime="0.00" timeLoss="2.93" rerouteNo="0" devices="tripinfo_ourVehicle4" vType="DEFAULT_VEHTYPE" speedFactor="1.80" vaporized=""/>
    <tripinfo id="ourVehicle6" depart="94.00" departLane="495683152_0" departPos="0.00" departSpeed="15.00" departDelay="44.00" arrival="113.00" arrivalLane="317948763_0" arrivalPos="75.38" arrivalSpeed="14.24" duration="19.00" routeLength="221.34" waitingTime="0.00" waitingCount="0" stopTime="0.00" timeLoss="3.41" rerouteNo="0" devices="tripinfo_ourVehicle6" vType="DEFAULT_VEHTYPE" speedFactor="1.80" vaporized=""/>
    <tripinfo id="ourVehicle7" depart="96.00" departLane="495683152_0" departPos="0.00" departSpeed="15.00" departDelay="43.00" arrival="113.00" arrivalLane="5218604_0" arrivalPos="64.89" arrivalSpeed="14.33" duration="17.00" routeLength="177.15" waitingTime="0.00" waitingCount="0" stopTime="0.00" timeLoss="3.70" rerouteNo="0" devices="tripinfo_ourVehicle7" vType="DEFAULT_VEHTYPE" speedFactor="1.80" vaporized=""/>
    <tripinfo id="ourVehicle10" depart="98.00" departLane="495683152_0" departPos="0.00" departSpeed="15.00" departDelay="40.00" arrival="116.00" arrivalLane="5218604_0" arrivalPos="64.89" arrivalSpeed="13.91" duration="18.00" routeLength="177.15" waitingTime="0.00" waitingCount="0" stopTime="0.00" timeLoss="4.72" rerouteNo="0" devices="tripinfo_ourVehicle10" vType="DEFAULT_VEHTYPE" speedFactor="1.80" vaporized=""/>
    <tripinfo id="ourVehicle14" depart="101.00" departLane="495683152_0" departPos="0.00" departSpeed="15.00" departDelay="36.00" arrival="119.00" arrivalLane="317948763_0" arrivalPos="75.38" arrivalSpeed="14.32" duration="18.00" routeLength="221.34" waitingTime="0.00" waitingCount="0" stopTime="0.00" timeLoss="2.49" rerouteNo="0" devices="tripinfo_ourVehicle14" vType="DEFAULT_VEHTYPE" speedFactor="1.80" vaporized=""/>
    <tripinfo id="ourVehicle15" depart="103.00" departLane="495683152_0" departPos="0.00" departSpeed="15.00" departDelay="37.00" arrival="119.00" arrivalLane="5218604_0" arrivalPos="64.89" arrivalSpeed="14.60" duration="16.00" routeLength="177.15" waitingTime="0.00" waitingCount="0" stopTime="0.00" timeLoss="3.32" rerouteNo="0" devices="tripinfo_ourVehicle15" vType="DEFAULT_VEHTYPE" speedFactor="1.80" vaporized=""/>
    <tripinfo id="ourVehicle16" depart="105.00" departLane="495683152_0" departPos="0.00" departSpeed="15.00" departDelay="37.00" arrival="123.00" arrivalLane="317948763_0" arrivalPos="75.38" arrivalSpeed="14.09" duration="18.00" routeLength="221.34" waitingTime="0.00" waitingCount="0" stopTime="0.00" timeLoss="2.65" rerouteNo="0" devices="tripinfo_ourVehicle16" vType="DEFAULT_VEHTYPE" speedFactor="1.80" vaporized=""/>
    <tripinfo id="ourVehicle17" depart="107.00" departLane="495683152_0" departPos="0.00" departSpeed="15.00" departDelay="37.00" arrival="124.00" arrivalLane="5218604_0" arrivalPos="64.89" arrivalSpeed="13.96" duration="17.00" routeLength="177.15" waitingTime="0.00" waitingCount="0" stopTime="0.00" timeLoss="3.90" rerouteNo="0" devices="tripinfo_ourVehicle17" vType="DEFAULT_VEHTYPE" speedFactor="1.80" vaporized=""/>
    <tripinfo id="ourVehicle18" depart="109.00" departLane="495683152_0" departPos="0.00" departSpeed="15.00" departDelay="38.00" arrival="126.00" arrivalLane="5218604_0" arrivalPos="64.89" arrivalSpeed="13.99" duration="17.00" routeLength="177.15" waitingTime="0.00" waitingCount="0" stopTime="0.00" timeLoss="4.39" rerouteNo="0" devices="tripinfo_ourVehicle18" vType="DEFAULT_VEHTYPE" speedFactor="1.80" vaporized=""/>
    <tripinfo id="veh0" depart="0.00" departLane="-23490810#1_0" departPos="5.10" departSpeed="8.83" departDelay="0.00" arrival="133.00" arrivalLane="23490810#1_0" arrivalPos="56.51" arrivalSpeed="8.38" duration="133.00" routeLength="474.35" waitingTime="69.00" waitingCount="2" stopTime="0.00" timeLoss="78.21" rerouteNo="1" devices="tripinfo_veh0 routing_veh0" vType="veh_passenger" speedFactor="1.06" vaporized=""/>
    <tripinfo id="ourVehicle3" depart="45.00" departLane="-317948763_0" departPos="0.00" departSpeed="15.00" departDelay="0.00" arrival="134.00" arrivalLane="5218604_0" arrivalPos="64.89" arrivalSpeed="13.75" duration="89.00" routeLength="328.24" waitingTime="48.00" waitingCount="2" stopTime="0.00" timeLoss="65.75" rerouteNo="0" devices="tripinfo_ourVehicle3" vType="DEFAULT_VEHTYPE" speedFactor="1.80" vaporized=""/>
    <tripinfo id="ourVehicle5" depart="48.00" departLane="-317948763_0" departPos="0.00" departSpeed="15.00" departDelay="0.00" arrival="136.00" arrivalLane="5218604_0" arrivalPos="64.89" arrivalSpeed="13.74" duration="88.00" routeLength="328.24" waitingTime="47.00" waitingCount="2" stopTime="0.00" timeLoss="65.35" rerouteNo="0" devices="tripinfo_ourVehicle5" vType="DEFAULT_VEHTYPE" speedFactor="1.80" vaporized=""/>
    <tripinfo id="veh3" depart="30.00" departLane="-23490810#1_0" departPos="5.10" departSpeed="7.81" departDelay="0.00" arrival="142.00" arrivalLane="23490810#1_0" arrivalPos="56.51" arrivalSpeed="6.98" duration="112.00" routeLength="474.35" waitingTime="35.00" waitingCount="2" stopTime="0.00" timeLoss="50.06" rerouteNo="1" devices="tripinfo_veh3 routing_veh3" vType="veh_passenger" speedFactor="0.94" vaporized=""/>
    <tripinfo id="ourVehicle9" depart="62.00" departLane="-317948763_0" departPos="0.00" departSpeed="15.00" departDelay="6.00" arrival="145.00" arrivalLane="5218604_0" arrivalPos="64.89" arrivalSpeed="14.11" duration="83.00" routeLength="328.24" waitingTime="29.00" waitingCount="2" stopTime="0.00" timeLoss="60.26" rerouteNo="0" devices="tripinfo_ourVehicle9" vType="DEFAULT_VEHTYPE" speedFactor="1.80" vaporized=""/>
    <tripinfo id="veh2" depart="20.00" departLane="495683152_0" departPos="5.10" departSpeed="7.38" departDelay="0.00" arrival="146.00" arrivalLane="23490810#1_0" arrivalPos="56.51" arrivalSpeed="7.24" duration="126.00" routeLength="526.03" waitingTime="32.00" waitingCount="3" stopTime="0.00" timeLoss="53.05" rerouteNo="1" devices="tripinfo_veh2 routing_veh2" vType="veh_passenger" speedFactor="0.89" vaporized=""/>
    <tripinfo id="ourVehicle12" depart="65.00" departLane="-317948763_0" departPos="0.00" departSpeed="15.00" departDelay="3.00" arrival="148.00" arrivalLane="5218604_0" arrivalPos="64.89" arrivalSpeed="14.19" duration="83.00" routeLength="328.24" waitingTime="28.00" waitingCount="2" stopTime="0.00" timeLoss="60.45" rerouteNo="0" devices="tripinfo_ourVehicle12" vType="DEFAULT_VEHTYPE" speedFactor="1.80" vaporized=""/>
    <tripinfo id="ourVehicle20" depart="75.00" departLane="-317948763_0" departPos="0.00" departSpeed="15.00" departDelay="0.00" arrival="151.00" arrivalLane="5218604_0" arrivalPos="64.89" arrivalSpeed="14.32" duration="76.00" routeLength="328.24" waitingTime="24.00" waitingCount="2" stopTime="0.00" timeLoss="52.65" rerouteNo="0" devices="tripinfo_ourVehicle20" vType="DEFAULT_VEHTYPE" speedFactor="1.80" vaporized=""/>
    <tripinfo id="ourVehicle22" depart="149.00" departLane="495683152_0" departPos="0.00" departSpeed="15.00" departDelay="0.00" arrival="168.00" arrivalLane="317948763_0" arrivalPos="75.38" arrivalSpeed="13.80" duration="19.00" routeLength="221.34" waitingTime="0.00" waitingCount="0" stopTime="0.00" timeLoss="3.05" rerouteNo="0" devices="tripinfo_ourVehicle22" vType="DEFAULT_VEHTYPE" speedFactor="1.80" vaporized=""/>
    <tripinfo id="ourVehicle23" depart="150.00" departLane="5218604_0" departPos="0.00" departSpeed="15.00" departDelay="0.00" arrival="171.00" arrivalLane="317948763_0" arrivalPos="75.38" arrivalSpeed="14.46" duration="21.00" routeLength="247.50" waitingTime="0.00" waitingCount="0" stopTime="0.00" timeLoss="3.34" rerouteNo="0" devices="tripinfo_ourVehicle23" vType="DEFAULT_VEHTYPE" speedFactor="1.80" vaporized=""/>
    <tripinfo id="ourVehicle24" depart="152.00" departLane="5218604_0" departPos="0.00" departSpeed="15.00" departDelay="0.00" arrival="173.00" arrivalLane="317948763_0" arrivalPos="75.38" arrivalSpeed="14.50" duration="21.00" routeLength="247.50" waitingTime="0.00" waitingCount="0" stopTime="0.00" timeLoss="3.62" rerouteNo="0" devices="tripinfo_ourVehicle24" vType="DEFAULT_VEHTYPE" speedFactor="1.80" vaporized=""/>
    <tripinfo id="ourVehicle26" depart="157.00" departLane="495683152_0" departPos="0.00" departSpeed="15.00" departDelay="0.00" arrival="175.00" arrivalLane="317948763_0" arrivalPos="75.38" arrivalSpeed="13.72" duration="18.00" routeLength="221.34" waitingTime="0.00" waitingCount="0" stopTime="0.00" timeLoss="3.11" rerouteNo="0" devices="tripinfo_ourVehicle26" vType="DEFAULT_VEHTYPE" speedFactor="1.80" vaporized=""/>
    <tripinfo id="ourVehicle21" depart="147.00" departLane="-317948763_0" departPos="0.00" departSpeed="15.00" departDelay="0.00" arrival="176.00" arrivalLane="5218604_0" arrivalPos="64.89" arrivalSpeed="14.88" duration="29.00" routeLength="328.24" waitingTime="0.00" waitingCount="0" stopTime="0.00" timeLoss="5.71" rerouteNo="0" devices="tripinfo_ourVehicle21" vType="DEFAULT_VEHTYPE" speedFactor="1.80" vaporized=""/>
    <tripinfo id="ourVehicle28" depart="160.00" departLane="495683152_0" departPos="0.00" departSpeed="15.00" departDelay="0.00" arrival="178.00" arrivalLane="317948763_0" arrivalPos="75.38" arrivalSpeed="14.59" duration="18.00" routeLength="221.34" waitingTime="0.00" waitingCount="0" stopTime="0.00" timeLoss="3.20" rerouteNo="0" devices="tripinfo_ourVehicle28" vType="DEFAULT_VEHTYPE" speedFactor="1.80" vaporized=""/>
    <tripinfo id="ourVehicle27" depart="159.00" departLane="5218604_0" departPos="0.00" departSpeed="15.00" departDelay="0.00" arrival="180.00" arrivalLane="317948763_0" arrivalPos="75.38" arrivalSpeed="14.89" duration="21.00" routeLength="247.50" waitingTime="0.00" waitingCount="0" stopTime="0.00" timeLoss="4.10" rerouteNo="0" devices="tripinfo_ourVehicle27" vType="DEFAULT_VEHTYPE" speedFactor="1.80" vaporized=""/>
    <tripinfo id="ourVehicle29" depart="162.00" departLane="5218604_0" departPos="0.00" departSpeed="15.00" departDelay="0.00" arrival="183.00" arrivalLane="317948763_0" arrivalPos="75.38" arrivalSpeed="14.10" duration="21.00" routeLength="247.50" waitingTime="0.00" waitingCount="0" stopTime="0.00" timeLoss="3.70" rerouteNo="0" devices="tripinfo_ourVehicle29" vType="DEFAULT_VEHTYPE" speedFactor="1.80" vaporized=""/>
    <tripinfo id="ourVehicle25" depart="155.00" departLane="23490810#1_0" departPos="0.00" departSpeed="15.00" departDelay="0.00" arrival="187.00" arrivalLane="317948763_0" arrivalPos="75.38" arrivalSpeed="13.82" duration="32.00" routeLength="379.50" waitingTime="0.00" waitingCount="0" stopTime="0.00" timeLoss="5.93" rerouteNo="0" devices="tripinfo_ourVehicle25" vType="DEFAULT_VEHTYPE" speedFactor="1.80" vaporized=""/>
    <tripinfo id="ourVehicle34" depart="170.00" departLane="495683152_0" departPos="0.00" departSpeed="15.00" departDelay="0.00" arrival="188.00" arrivalLane="5218604_0" arrivalPos="64.89" arrivalSpeed="14.34" duration="18.00" routeLength="177.15" waitingTime="0.00" waitingCount="0" stopTime="0.00" timeLoss="5.04" rerouteNo="0" devices="tripinfo_ourVehicle34" vType="DEFAULT_VEHTYPE" speedFactor="1.80" vaporized=""/>
    <tripinfo id="ourVehicle35" depart="172.00" departLane="495683152_0" departPos="0.00" departSpeed="15.00" departDelay="0.00" arrival="190.00" arrivalLane="5218604_0" arrivalPos="64.89" arrivalSpeed="14.10" duration="18.00" routeLength="177.15" waitingTime="0.00" waitingCount="0" stopTime="0.00" timeLoss="4.66" rerouteNo="0" devices="tripinfo_ourVehicle35" vType="DEFAULT_VEHTYPE" speedFactor="1.80" vaporized=""/>
    <tripinfo id="ourVehicle36" depart="175.00" departLane="495683152_0" departPos="0.00" departSpeed="15.00" departDelay="1.00" arrival="193.00" arrivalLane="5218604_0" arrivalPos="64.89" arrivalSpeed="14.61" duration="18.00" routeLength="177.15" waitingTime="0.00" waitingCount="0" stopTime="0.00" timeLoss="4.96" rerouteNo="0" devices="tripinfo_ourVehicle36" vType="DEFAULT_VEHTYPE" speedFactor="1.80" vaporized=""/>
    <tripinfo id="ourVehicle30" depart="164.00" departLane="-317948763_0" departPos="0.00" departSpeed="15.00" departDelay="0.00" arrival="195.00" arrivalLane="5218604_0" arrivalPos="64.89" arrivalSpeed="14.06" duration="31.00" routeLength="328.24" waitingTime="0.00" waitingCount="0" stopTime="0.00" timeLoss="8.16" rerouteNo="0" devices="tripinfo_ourVehicle30" vType="DEFAULT_VEHTYPE" speedFactor="1.80" vaporized=""/>
    <tripinfo id="ourVehicle37" depart="177.00" departLane="495683152_0" departPos="0.00" departSpeed="15.00" departDelay="2.00" arrival="198.00" arrivalLane="5218604_0" arrivalPos="64.89" arrivalSpeed="14.96" duration="21.00" routeLength="177.15" waitingTime="0.00" waitingCount="0" stopTime="0.00" timeLoss="7.68" rerouteNo="0" devices="tripinfo_ourVehicle37" vType="DEFAULT_VEHTYPE" speedFactor="1.80" vaporized=""/>
    <tripinfo id="ourVehicle32" depart="167.00" departLane="23490810#1_0" departPos="0.00" departSpeed="15.00" departDelay="0.00" arrival="200.00" arrivalLane="317948763_0" arrivalPos="75.38" arrivalSpeed="13.96" duration="33.00" routeLength="379.50" waitingTime="0.00" waitingCount="0" stopTime="0.00" timeLoss="6.08" rerouteNo="0" devices="tripinfo_ourVehicle32" vType="DEFAULT_VEHTYPE" speedFactor="1.80" vaporized=""/>
    <tripinfo id="ourVehicle31" depart="166.00" departLane="-317948763_0" departPos="0.00" departSpeed="15.00" departDelay="1.00" arrival="201.00" arrivalLane="5218604_0" arrivalPos="64.89" arrivalSpeed="14.54" duration="35.00" routeLength="328.24" waitingTime="1.00" waitingCount="1" stopTime="0.00" timeLoss="11.35" rerouteNo="0" devices="tripinfo_ourVehicle31" vType="DEFAULT_VEHTYPE" speedFactor="1.80" vaporized=""/>
    <tripinfo id="ourVehicle33" depart="169.00" departLane="-317948763_0" departPos="0.00" departSpeed="15.00" departDelay="0.00" arrival="204.00" arrivalLane="5218604_0" arrivalPos="64.89" arrivalSpeed="14.11" duration="35.00" routeLength="328.24" waitingTime="0.00" waitingCount="0" stopTime="0.00" timeLoss="11.56" rerouteNo="0" devices="tripinfo_ourVehicle33" vType="DEFAULT_VEHTYPE" speedFactor="1.80" vaporized=""/>
    <tripinfo id="ourVehicle38" depart="182.00" departLane="495683152_0" departPos="0.00" departSpeed="15.00" departDelay="5.00" arrival="207.00" arrivalLane="5218604_0" arrivalPos="64.89" arrivalSpeed="13.89" duration="25.00" routeLength="177.15" waitingTime="0.00" waitingCount="0" stopTime="0.00" timeLoss="11.90" rerouteNo="0" devices="tripinfo_ourVehicle38" vType="DEFAULT_VEHTYPE" speedFactor="1.80" vaporized=""/>
    <tripinfo id="ourVehicle39" depart="188.00" departLane="495683152_0" departPos="0.00" departSpeed="15.00" departDelay="9.00" arrival="207.00" arrivalLane="317948763_0" arrivalPos="75.38" arrivalSpeed="14.13" duration="19.00" routeLength="221.34" waitingTime="0.00" waitingCount="0" stopTime="0.00" timeLoss="2.82" rerouteNo="0" devices="tripinfo_ourVehicle39" vType="DEFAULT_VEHTYPE" speedFactor="1.80" vaporized=""/>
    <tripinfo id="ourVehicle40" depart="180.00" departLane="-317948763_0" departPos="0.00" departSpeed="15.00" departDelay="0.00" arrival="209.00" arrivalLane="5218604_0" arrivalPos="64.89" arrivalSpeed="13.87" duration="29.00" routeLength="328.24" waitingTime="0.00" waitingCount="0" stopTime="0.00" timeLoss="6.31" rerouteNo="0" devices="tripinfo_ourVehicle40" vType="DEFAULT_VEHTYPE" speedFactor="1.80" vaporized=""/>
    <tripinfo id="ourVehicle42" depart="190.00" departLane="495683152_0" departPos="0.00" departSpeed="15.00" departDelay="6.00" arrival="209.00" arrivalLane="317948763_0" arrivalPos="75.38" arrivalSpeed="14.05" duration="19.00" routeLength="221.34" waitingTime="0.00" waitingCount="0" stopTime="0.00" timeLoss="3.38" rerouteNo="0" devices="tripinfo_ourVehicle42" vType="DEFAULT_VEHTYPE" speedFactor="1.80" vaporized=""/>
    <tripinfo id="ourVehicle43" depart="192.00" departLane="495683152_0" departPos="0.00" departSpeed="15.00" departDelay="7.00" arrival="211.00" arrivalLane="317948763_0" arrivalPos="75.38" arrivalSpeed="13.98" duration="19.00" routeLength="221.34" waitingTime="0.00" waitingCount="0" stopTime="0.00" timeLoss="3.38" rerouteNo="0" devices="tripinfo_ourVehicle43" vType="DEFAULT_VEHTYPE" speedFactor="1.80" vaporized=""/>
    <tripinfo id="ourVehicle41" depart="182.00" departLane="-317948763_0" departPos="0.00" departSpeed="15.00" departDelay="0.00" arrival="213.00" arrivalLane="5218604_0" arrivalPos="64.89" arrivalSpeed="13.75" duration="31.00" routeLength="328.24" waitingTime="0.00" waitingCount="0" stopTime="0.00" timeLoss="7.74" rerouteNo="0" devices="tripinfo_ourVehicle41" vType="DEFAULT_VEHTYPE" speedFactor="1.80" vaporized=""/>
    <tripinfo id="ourVehicle45" depart="194.00" departLane="495683152_0" departPos="0.00" departSpeed="15.00" departDelay="5.00" arrival="214.00" arrivalLane="317948763_0" arrivalPos="75.38" arrivalSpeed="14.52" duration="20.00" routeLength="221.34" waitingTime="0.00" waitingCount="0" stopTime="0.00" timeLoss="5.11" rerouteNo="0" devices="tripinfo_ourVehicle45" vType="DEFAULT_VEHTYPE" speedFactor="1.80" vaporized=""/>
    <tripinfo id="ourVehicle48" depart="197.00" departLane="495683152_0" departPos="0.00" departSpeed="15.00" departDelay="3.00" arrival="217.00" arrivalLane="317948763_0" arrivalPos="75.38" arrivalSpeed="14.30" duration="20.00" routeLength="221.34" waitingTime="0.00" waitingCount="0" stopTime="0.00" timeLoss="4.52" rerouteNo="0" devices="tripinfo_ourVehicle48" vType="DEFAULT_VEHTYPE" speedFactor="1.80" vaporized=""/>
    <tripinfo id="ourVehicle46" depart="191.00" departLane="-317948763_0" departPos="0.00" departSpeed="15.00" departDelay="0.00" arrival="219.00" arrivalLane="5218604_0" arrivalPos="64.89" arrivalSpeed="14.65" duration="28.00" routeLength="328.24" waitingTime="0.00" waitingCount="0" stopTime="0.00" timeLoss="4.55" rerouteNo="0" devices="tripinfo_ourVehicle46" vType="DEFAULT_VEHTYPE" speedFactor="1.80" vaporized=""/>
    <tripinfo id="ourVehicle49" depart="201.00" departLane="495683152_0" departPos="0.00" departSpeed="15.00" departDelay="5.00" arrival="220.00" arrivalLane="317948763_0" arrivalPos="75.38" arrivalSpeed="13.77" duration="19.00" routeLength="221.34" waitingTime="0.00" waitingCount="0" stopTime="0.00" timeLoss="3.37" rerouteNo="0" devices="tripinfo_ourVehicle49" vType="DEFAULT_VEHTYPE" speedFactor="1.80" vaporized=""/>
</tripinfos>
